 Entering Gaussian System, Link 0=/usr/local/g16.b01/g16/g16
 Initial command:
 /usr/local/g16.b01/g16/l1.exe "/scratch/webmo-2626/93/Gau-36878.inp" -scrdir="/scratch/webmo-2626/93/"
 Entering Link 1 = /usr/local/g16.b01/g16/l1.exe PID=     36880.
  
 Copyright (c) 1988-2017, Gaussian, Inc.  All Rights Reserved.
  
 This is part of the Gaussian(R) 16 program.  It is based on
 the Gaussian(R) 09 system (copyright 2009, Gaussian, Inc.),
 the Gaussian(R) 03 system (copyright 2003, Gaussian, Inc.),
 the Gaussian(R) 98 system (copyright 1998, Gaussian, Inc.),
 the Gaussian(R) 94 system (copyright 1995, Gaussian, Inc.),
 the Gaussian 92(TM) system (copyright 1992, Gaussian, Inc.),
 the Gaussian 90(TM) system (copyright 1990, Gaussian, Inc.),
 the Gaussian 88(TM) system (copyright 1988, Gaussian, Inc.),
 the Gaussian 86(TM) system (copyright 1986, Carnegie Mellon
 University), and the Gaussian 82(TM) system (copyright 1983,
 Carnegie Mellon University). Gaussian is a federally registered
 trademark of Gaussian, Inc.
  
 This software contains proprietary and confidential information,
 including trade secrets, belonging to Gaussian, Inc.
  
 This software is provided under written license and may be
 used, copied, transmitted, or stored only in accord with that
 written license.
  
 The following legend is applicable only to US Government
 contracts under FAR:
  
                    RESTRICTED RIGHTS LEGEND
  
 Use, reproduction and disclosure by the US Government is
 subject to restrictions as set forth in subparagraphs (a)
 and (c) of the Commercial Computer Software - Restricted
 Rights clause in FAR 52.227-19.
  
 Gaussian, Inc.
 340 Quinnipiac St., Bldg. 40, Wallingford CT 06492
  
  
 ---------------------------------------------------------------
 Warning -- This program may not be used in any manner that
 competes with the business of Gaussian, Inc. or will provide
 assistance to any competitor of Gaussian, Inc.  The licensee
 of this program is prohibited from giving any competitor of
 Gaussian, Inc. access to this program.  By using this program,
 the user acknowledges that Gaussian, Inc. is engaged in the
 business of creating and licensing software in the field of
 computational chemistry and represents and warrants to the
 licensee that it is not a competitor of Gaussian, Inc. and that
 it will not use this program in any manner prohibited above.
 ---------------------------------------------------------------
  

 Cite this work as:
 Gaussian 16, Revision B.01,
 M. J. Frisch, G. W. Trucks, H. B. Schlegel, G. E. Scuseria, 
 M. A. Robb, J. R. Cheeseman, G. Scalmani, V. Barone, 
 G. A. Petersson, H. Nakatsuji, X. Li, M. Caricato, A. V. Marenich, 
 J. Bloino, B. G. Janesko, R. Gomperts, B. Mennucci, H. P. Hratchian, 
 J. V. Ortiz, A. F. Izmaylov, J. L. Sonnenberg, D. Williams-Young, 
 F. Ding, F. Lipparini, F. Egidi, J. Goings, B. Peng, A. Petrone, 
 T. Henderson, D. Ranasinghe, V. G. Zakrzewski, J. Gao, N. Rega, 
 G. Zheng, W. Liang, M. Hada, M. Ehara, K. Toyota, R. Fukuda, 
 J. Hasegawa, M. Ishida, T. Nakajima, Y. Honda, O. Kitao, H. Nakai, 
 T. Vreven, K. Throssell, J. A. Montgomery, Jr., J. E. Peralta, 
 F. Ogliaro, M. J. Bearpark, J. J. Heyd, E. N. Brothers, K. N. Kudin, 
 V. N. Staroverov, T. A. Keith, R. Kobayashi, J. Normand, 
 K. Raghavachari, A. P. Rendell, J. C. Burant, S. S. Iyengar, 
 J. Tomasi, M. Cossi, J. M. Millam, M. Klene, C. Adamo, R. Cammi, 
 J. W. Ochterski, R. L. Martin, K. Morokuma, O. Farkas, 
 J. B. Foresman, and D. J. Fox, Gaussian, Inc., Wallingford CT, 2016.
 
 ******************************************
 Gaussian 16:  EM64L-G16RevB.01 20-Dec-2017
                22-Mar-2022 
 ******************************************
 %NProcShared=16
 Will use up to   16 processors via shared memory.
 %Mem=32GB
 ---------------------------------------------
 #N PBEPBE/6-31G(d) OPT FREQ Geom=Connectivity
 ---------------------------------------------
 1/18=20,19=15,26=3,38=1,57=2/1,3;
 2/9=110,12=2,17=6,18=5,40=1/2;
 3/5=1,6=6,7=1,11=2,25=1,30=1,71=1,74=1009/1,2,3;
 4//1;
 5/5=2,38=5/2;
 6/7=2,8=2,9=2,10=2,28=1/1;
 7//1,2,3,16;
 1/18=20,19=15,26=3/3(2);
 2/9=110/2;
 99//99;
 2/9=110/2;
 3/5=1,6=6,7=1,11=2,25=1,30=1,71=1,74=1009/1,2,3;
 4/5=5,16=3,69=1/1;
 5/5=2,38=5/2;
 7//1,2,3,16;
 1/18=20,19=15,26=3/3(-5);
 2/9=110/2;
 6/7=2,8=2,9=2,10=2,19=2,28=1/1;
 99/9=1/99;
 ----
 PETE
 ----
 Symbolic Z-matrix:
 Charge =  0 Multiplicity = 1
 C
 C                    1    B1
 O                    2    B2       1    A1
 C                    3    B3       2    A2       1    D1       0
 C                    4    B4       3    A3       2    D2       0
 C                    5    B5       4    A4       3    D3       0
 C                    6    B6       5    A5       4    D4       0
 C                    7    B7       6    A6       5    D5       0
 C                    8    B8       7    A7       6    D6       0
 C                    9    B9       8    A8       7    D7       0
 H                    10   B10      9    A9       8    D8       0
 H                    9    B11      8    A10      7    D9       0
 C                    8    B12      7    A11      6    D10      0
 O                    13   B13      8    A12      7    D11      0
 C                    14   B14      13   A13      8    D12      0
 C                    15   B15      14   A14      13   D13      0
 O                    16   B16      15   A15      14   D14      0
 C                    17   B17      16   A16      15   D15      0
 C                    18   B18      17   A17      16   D16      0
 C                    19   B19      18   A18      17   D17      0
 C                    20   B20      19   A19      18   D18      0
 C                    21   B21      20   A20      19   D19      0
 C                    22   B22      21   A21      20   D20      0
 C                    23   B23      22   A22      21   D21      0
 H                    24   B24      23   A23      22   D22      0
 H                    23   B25      22   A24      21   D23      0
 C                    22   B26      21   A25      20   D24      0
 O                    27   B27      22   A26      21   D25      0
 C                    28   B28      27   A27      22   D26      0
 C                    29   B29      28   A28      27   D27      0
 O                    30   B30      29   A29      28   D28      0
 C                    31   B31      30   A30      29   D29      0
 C                    32   B32      31   A31      30   D30      0
 C                    33   B33      32   A32      31   D31      0
 C                    34   B34      33   A33      32   D32      0
 C                    35   B35      34   A34      33   D33      0
 C                    36   B36      35   A35      34   D34      0
 C                    37   B37      36   A36      35   D35      0
 H                    38   B38      37   A37      36   D36      0
 H                    37   B39      36   A38      35   D37      0
 C                    36   B40      35   A39      34   D38      0
 O                    41   B41      36   A40      35   D39      0
 C                    42   B42      41   A41      36   D40      0
 C                    43   B43      42   A42      41   D41      0
 O                    44   B44      43   A43      42   D42      0
 H                    45   B45      44   A44      43   D43      0
 H                    44   B46      43   A45      42   D44      0
 H                    44   B47      43   A46      42   D45      0
 H                    43   B48      44   A47      45   D46      0
 H                    43   B49      44   A48      45   D47      0
 O                    41   B50      36   A49      35   D48      0
 H                    35   B51      34   A50      33   D49      0
 H                    34   B52      33   A51      38   D50      0
 O                    32   B53      33   A52      34   D51      0
 H                    30   B54      29   A53      28   D52      0
 H                    30   B55      29   A54      28   D53      0
 H                    29   B56      30   A55      31   D54      0
 H                    29   B57      30   A56      31   D55      0
 O                    27   B58      22   A57      21   D56      0
 H                    21   B59      20   A58      19   D57      0
 H                    20   B60      19   A59      24   D58      0
 O                    18   B61      19   A60      20   D59      0
 H                    16   B62      15   A61      14   D60      0
 H                    16   B63      15   A62      14   D61      0
 H                    15   B64      16   A63      17   D62      0
 H                    15   B65      16   A64      17   D63      0
 O                    13   B66      8    A65      7    D64      0
 H                    7    B67      6    A66      5    D65      0
 H                    6    B68      5    A67      10   D66      0
 O                    4    B69      5    A68      6    D67      0
 H                    2    B70      1    A69      3    D68      0
 H                    2    B71      1    A70      3    D69      0
 O                    1    B72      2    A71      3    D70      0
 C                    73   B73      1    A72      2    D71      0
 C                    74   B74      73   A73      1    D72      0
 C                    75   B75      74   A74      73   D73      0
 C                    76   B76      75   A75      74   D74      0
 C                    77   B77      76   A76      75   D75      0
 C                    78   B78      77   A77      76   D76      0
 C                    75   B79      76   A78      77   D77      0
 H                    80   B80      75   A79      76   D78      0
 H                    79   B81      80   A80      75   D79      0
 C                    78   B82      77   A81      76   D80      0
 O                    83   B83      78   A82      77   D81      0
 H                    84   B84      83   A83      78   D82      0
 O                    83   B85      78   A84      77   D83      0
 H                    77   B86      78   A85      79   D84      0
 H                    76   B87      77   A86      78   D85      0
 O                    74   B88      75   A87      76   D86      0
 H                    1    B89      2    A88      3    D87      0
 H                    1    B90      2    A89      3    D88      0
       Variables:
  B1                    1.5285                   
  B2                    1.42717                  
  B3                    1.35747                  
  B4                    1.47709                  
  B5                    1.39766                  
  B6                    1.391                    
  B7                    1.39759                  
  B8                    1.39444                  
  B9                    1.39428                  
  B10                   1.09245                  
  B11                   1.09213                  
  B12                   1.47692                  
  B13                   1.36071                  
  B14                   1.42379                  
  B15                   1.53197                  
  B16                   1.43153                  
  B17                   1.35854                  
  B18                   1.47803                  
  B19                   1.3971                   
  B20                   1.39107                  
  B21                   1.39782                  
  B22                   1.39469                  
  B23                   1.39422                  
  B24                   1.09193                  
  B25                   1.0923                   
  B26                   1.47665                  
  B27                   1.35777                  
  B28                   1.427                    
  B29                   1.5285                   
  B30                   1.42728                  
  B31                   1.35736                  
  B32                   1.47726                  
  B33                   1.39748                  
  B34                   1.39121                  
  B35                   1.39764                  
  B36                   1.39471                  
  B37                   1.39423                  
  B38                   1.0924                   
  B39                   1.09205                  
  B40                   1.47811                  
  B41                   1.35345                  
  B42                   1.42902                  
  B43                   1.5289                   
  B44                   1.40798                  
  B45                   0.9876                   
  B46                   1.10642                  
  B47                   1.10657                  
  B48                   1.10574                  
  B49                   1.10628                  
  B50                   1.20764                  
  B51                   1.09449                  
  B52                   1.0943                   
  B53                   1.20566                  
  B54                   1.10571                  
  B55                   1.10739                  
  B56                   1.10738                  
  B57                   1.10576                  
  B58                   1.20581                  
  B59                   1.09424                  
  B60                   1.09389                  
  B61                   1.20367                  
  B62                   1.10555                  
  B63                   1.10507                  
  B64                   1.10781                  
  B65                   1.10354                  
  B66                   1.20417                  
  B67                   1.09418                  
  B68                   1.09427                  
  B69                   1.20568                  
  B70                   1.10572                  
  B71                   1.10741                  
  B72                   1.42715                  
  B73                   1.35741                  
  B74                   1.47718                  
  B75                   1.39771                  
  B76                   1.3908                   
  B77                   1.39837                  
  B78                   1.39467                  
  B79                   1.39432                  
  B80                   1.09236                  
  B81                   1.09294                  
  B82                   1.47511                  
  B83                   1.35839                  
  B84                   0.99101                  
  B85                   1.20458                  
  B86                   1.0944                   
  B87                   1.09409                  
  B88                   1.2057                   
  B89                   1.10745                  
  B90                   1.10572                  
  A1                  110.97455                  
  A2                  116.50861                  
  A3                  111.41739                  
  A4                  117.31683                  
  A5                  119.57863                  
  A6                  119.53825                  
  A7                  120.90535                  
  A8                  119.54648                  
  A9                  119.68393                  
  A10                 120.74908                  
  A11                 117.26873                  
  A12                 110.98743                  
  A13                 116.87181                  
  A14                 108.9427                   
  A15                 103.28244                  
  A16                 115.78102                  
  A17                 110.71563                  
  A18                 117.40173                  
  A19                 119.5116                   
  A20                 119.58959                  
  A21                 120.85442                  
  A22                 119.56176                  
  A23                 119.79808                  
  A24                 120.7681                   
  A25                 117.29485                  
  A26                 111.46697                  
  A27                 116.51032                  
  A28                 110.99005                  
  A29                 110.98801                  
  A30                 116.5135                   
  A31                 111.42118                  
  A32                 117.32834                  
  A33                 119.58625                  
  A34                 119.56033                  
  A35                 120.85691                  
  A36                 119.57163                  
  A37                 119.67106                  
  A38                 120.80483                  
  A39                 117.29926                  
  A40                 111.25188                  
  A41                 118.01428                  
  A42                 110.83517                  
  A43                 111.11067                  
  A44                 109.40865                  
  A45                 111.80206                  
  A46                 111.98544                  
  A47                 112.87905                  
  A48                 112.02806                  
  A49                 126.01356                  
  A50                 120.4727                   
  A51                 119.93964                  
  A52                 126.8098                   
  A53                 112.31324                  
  A54                 112.54392                  
  A55                 112.54346                  
  A56                 112.30137                  
  A57                 126.85238                  
  A58                 120.48767                  
  A59                 119.92526                  
  A60                 127.11918                  
  A61                 112.93652                  
  A62                 112.26649                  
  A63                 112.31992                  
  A64                 112.39808                  
  A65                 126.9901                   
  A66                 120.52285                  
  A67                 119.91949                  
  A68                 126.8231                   
  A69                 112.31273                  
  A70                 112.54017                  
  A71                 110.97942                  
  A72                 116.51879                  
  A73                 111.41616                  
  A74                 117.31601                  
  A75                 119.56868                  
  A76                 119.61892                  
  A77                 120.78888                  
  A78                 120.84838                  
  A79                 120.75297                  
  A80                 119.64403                  
  A81                 117.22342                  
  A82                 112.16837                  
  A83                 113.14817                  
  A84                 127.50865                  
  A85                 119.93218                  
  A86                 120.51185                  
  A87                 126.82937                  
  A88                 112.54031                  
  A89                 112.31055                  
  D1                   61.75478                  
  D2                  175.9383                   
  D3                  166.08092                  
  D4                  179.90809                  
  D5                   -0.17683                  
  D6                    0.0666                   
  D7                   -0.00545                  
  D8                 -179.8476                   
  D9                  179.9745                   
  D10                 179.71622                  
  D11                 162.73469                  
  D12                 179.32419                  
  D13                  73.49221                  
  D14                 160.06001                  
  D15                -176.04324                  
  D16                -179.16733                  
  D17                -159.07899                  
  D18                -179.97113                  
  D19                   0.07819                  
  D20                   0.44893                  
  D21                  -0.4911                   
  D22                 179.87969                  
  D23                 179.45575                  
  D24                -179.96064                  
  D25                 167.39201                  
  D26                 175.83576                  
  D27                  61.69071                  
  D28                 131.44812                  
  D29                  61.71603                  
  D30                 175.938                    
  D31                 166.39097                  
  D32                 179.97615                  
  D33                   0.03337                  
  D34                  -0.42808                  
  D35                   0.40356                  
  D36                -179.95524                  
  D37                -179.58229                  
  D38                -179.99621                  
  D39                -166.62162                  
  D40                 177.80255                  
  D41                  74.05659                  
  D42                -102.79109                  
  D43                  51.41717                  
  D44                  19.37052                  
  D45                 142.33906                  
  D46                 144.69777                  
  D47                  20.23592                  
  D48                  12.92826                  
  D49                -179.69602                  
  D50                -179.26604                  
  D51                 -12.08374                  
  D52                -106.25121                  
  D53                  18.13256                  
  D54                  18.1162                   
  D55                -106.25478                  
  D56                 -11.06786                  
  D57                 179.71582                  
  D58                 179.02548                  
  D59                  20.01232                  
  D60                 -82.37324                  
  D61                  41.84646                  
  D62                  47.59456                  
  D63                 -77.07199                  
  D64                 -16.44351                  
  D65                 179.65585                  
  D66                -179.55429                  
  D67                 -12.40116                  
  D68                 122.30434                  
  D69                -113.31052                  
  D70                 131.56477                  
  D71                  61.72519                  
  D72                 175.93896                  
  D73                 165.95343                  
  D74                 179.92538                  
  D75                  -0.11477                  
  D76                  -0.07322                  
  D77                   0.27426                  
  D78                 179.70016                  
  D79                -179.94108                  
  D80                 179.85945                  
  D81                 176.07063                  
  D82                -179.87461                  
  D83                  -3.85213                  
  D84                 179.90725                  
  D85                 179.62591                  
  D86                 -12.52266                  
  D87                  18.25301                  
  D88                -106.13023                  
 

 GradGradGradGradGradGradGradGradGradGradGradGradGradGradGradGradGradGrad
 Berny optimization.
 Initialization pass.
                           ----------------------------
                           !    Initial Parameters    !
                           ! (Angstroms and Degrees)  !
 --------------------------                            --------------------------
 ! Name  Definition              Value          Derivative Info.                !
 --------------------------------------------------------------------------------
 ! R1    R(1,2)                  1.5285         estimate D2E/DX2                !
 ! R2    R(1,73)                 1.4272         estimate D2E/DX2                !
 ! R3    R(1,90)                 1.1075         estimate D2E/DX2                !
 ! R4    R(1,91)                 1.1057         estimate D2E/DX2                !
 ! R5    R(2,3)                  1.4272         estimate D2E/DX2                !
 ! R6    R(2,71)                 1.1057         estimate D2E/DX2                !
 ! R7    R(2,72)                 1.1074         estimate D2E/DX2                !
 ! R8    R(3,4)                  1.3575         estimate D2E/DX2                !
 ! R9    R(4,5)                  1.4771         estimate D2E/DX2                !
 ! R10   R(4,70)                 1.2057         estimate D2E/DX2                !
 ! R11   R(5,6)                  1.3977         estimate D2E/DX2                !
 ! R12   R(5,10)                 1.3946         estimate D2E/DX2                !
 ! R13   R(6,7)                  1.391          estimate D2E/DX2                !
 ! R14   R(6,69)                 1.0943         estimate D2E/DX2                !
 ! R15   R(7,8)                  1.3976         estimate D2E/DX2                !
 ! R16   R(7,68)                 1.0942         estimate D2E/DX2                !
 ! R17   R(8,9)                  1.3944         estimate D2E/DX2                !
 ! R18   R(8,13)                 1.4769         estimate D2E/DX2                !
 ! R19   R(9,10)                 1.3943         estimate D2E/DX2                !
 ! R20   R(9,12)                 1.0921         estimate D2E/DX2                !
 ! R21   R(10,11)                1.0924         estimate D2E/DX2                !
 ! R22   R(13,14)                1.3607         estimate D2E/DX2                !
 ! R23   R(13,67)                1.2042         estimate D2E/DX2                !
 ! R24   R(14,15)                1.4238         estimate D2E/DX2                !
 ! R25   R(15,16)                1.532          estimate D2E/DX2                !
 ! R26   R(15,65)                1.1078         estimate D2E/DX2                !
 ! R27   R(15,66)                1.1035         estimate D2E/DX2                !
 ! R28   R(16,17)                1.4315         estimate D2E/DX2                !
 ! R29   R(16,63)                1.1055         estimate D2E/DX2                !
 ! R30   R(16,64)                1.1051         estimate D2E/DX2                !
 ! R31   R(17,18)                1.3585         estimate D2E/DX2                !
 ! R32   R(18,19)                1.478          estimate D2E/DX2                !
 ! R33   R(18,62)                1.2037         estimate D2E/DX2                !
 ! R34   R(19,20)                1.3971         estimate D2E/DX2                !
 ! R35   R(19,24)                1.3943         estimate D2E/DX2                !
 ! R36   R(20,21)                1.3911         estimate D2E/DX2                !
 ! R37   R(20,61)                1.0939         estimate D2E/DX2                !
 ! R38   R(21,22)                1.3978         estimate D2E/DX2                !
 ! R39   R(21,60)                1.0942         estimate D2E/DX2                !
 ! R40   R(22,23)                1.3947         estimate D2E/DX2                !
 ! R41   R(22,27)                1.4767         estimate D2E/DX2                !
 ! R42   R(23,24)                1.3942         estimate D2E/DX2                !
 ! R43   R(23,26)                1.0923         estimate D2E/DX2                !
 ! R44   R(24,25)                1.0919         estimate D2E/DX2                !
 ! R45   R(27,28)                1.3578         estimate D2E/DX2                !
 ! R46   R(27,59)                1.2058         estimate D2E/DX2                !
 ! R47   R(28,29)                1.427          estimate D2E/DX2                !
 ! R48   R(29,30)                1.5285         estimate D2E/DX2                !
 ! R49   R(29,57)                1.1074         estimate D2E/DX2                !
 ! R50   R(29,58)                1.1058         estimate D2E/DX2                !
 ! R51   R(30,31)                1.4273         estimate D2E/DX2                !
 ! R52   R(30,55)                1.1057         estimate D2E/DX2                !
 ! R53   R(30,56)                1.1074         estimate D2E/DX2                !
 ! R54   R(31,32)                1.3574         estimate D2E/DX2                !
 ! R55   R(32,33)                1.4773         estimate D2E/DX2                !
 ! R56   R(32,54)                1.2057         estimate D2E/DX2                !
 ! R57   R(33,34)                1.3975         estimate D2E/DX2                !
 ! R58   R(33,38)                1.3946         estimate D2E/DX2                !
 ! R59   R(34,35)                1.3912         estimate D2E/DX2                !
 ! R60   R(34,53)                1.0943         estimate D2E/DX2                !
 ! R61   R(35,36)                1.3976         estimate D2E/DX2                !
 ! R62   R(35,52)                1.0945         estimate D2E/DX2                !
 ! R63   R(36,37)                1.3947         estimate D2E/DX2                !
 ! R64   R(36,41)                1.4781         estimate D2E/DX2                !
 ! R65   R(37,38)                1.3942         estimate D2E/DX2                !
 ! R66   R(37,40)                1.092          estimate D2E/DX2                !
 ! R67   R(38,39)                1.0924         estimate D2E/DX2                !
 ! R68   R(41,42)                1.3534         estimate D2E/DX2                !
 ! R69   R(41,51)                1.2076         estimate D2E/DX2                !
 ! R70   R(42,43)                1.429          estimate D2E/DX2                !
 ! R71   R(43,44)                1.5289         estimate D2E/DX2                !
 ! R72   R(43,49)                1.1057         estimate D2E/DX2                !
 ! R73   R(43,50)                1.1063         estimate D2E/DX2                !
 ! R74   R(44,45)                1.408          estimate D2E/DX2                !
 ! R75   R(44,47)                1.1064         estimate D2E/DX2                !
 ! R76   R(44,48)                1.1066         estimate D2E/DX2                !
 ! R77   R(45,46)                0.9876         estimate D2E/DX2                !
 ! R78   R(73,74)                1.3574         estimate D2E/DX2                !
 ! R79   R(74,75)                1.4772         estimate D2E/DX2                !
 ! R80   R(74,89)                1.2057         estimate D2E/DX2                !
 ! R81   R(75,76)                1.3977         estimate D2E/DX2                !
 ! R82   R(75,80)                1.3943         estimate D2E/DX2                !
 ! R83   R(76,77)                1.3908         estimate D2E/DX2                !
 ! R84   R(76,88)                1.0941         estimate D2E/DX2                !
 ! R85   R(77,78)                1.3984         estimate D2E/DX2                !
 ! R86   R(77,87)                1.0944         estimate D2E/DX2                !
 ! R87   R(78,79)                1.3947         estimate D2E/DX2                !
 ! R88   R(78,83)                1.4751         estimate D2E/DX2                !
 ! R89   R(79,80)                1.3946         estimate D2E/DX2                !
 ! R90   R(79,82)                1.0929         estimate D2E/DX2                !
 ! R91   R(80,81)                1.0924         estimate D2E/DX2                !
 ! R92   R(83,84)                1.3584         estimate D2E/DX2                !
 ! R93   R(83,86)                1.2046         estimate D2E/DX2                !
 ! R94   R(84,85)                0.991          estimate D2E/DX2                !
 ! A1    A(2,1,73)             110.9794         estimate D2E/DX2                !
 ! A2    A(2,1,90)             112.5403         estimate D2E/DX2                !
 ! A3    A(2,1,91)             112.3105         estimate D2E/DX2                !
 ! A4    A(73,1,90)            101.7726         estimate D2E/DX2                !
 ! A5    A(73,1,91)            109.0095         estimate D2E/DX2                !
 ! A6    A(90,1,91)            109.6952         estimate D2E/DX2                !
 ! A7    A(1,2,3)              110.9746         estimate D2E/DX2                !
 ! A8    A(1,2,71)             112.3127         estimate D2E/DX2                !
 ! A9    A(1,2,72)             112.5402         estimate D2E/DX2                !
 ! A10   A(3,2,71)             109.0105         estimate D2E/DX2                !
 ! A11   A(3,2,72)             101.7741         estimate D2E/DX2                !
 ! A12   A(71,2,72)            109.6954         estimate D2E/DX2                !
 ! A13   A(2,3,4)              116.5086         estimate D2E/DX2                !
 ! A14   A(3,4,5)              111.4174         estimate D2E/DX2                !
 ! A15   A(3,4,70)             121.7419         estimate D2E/DX2                !
 ! A16   A(5,4,70)             126.8231         estimate D2E/DX2                !
 ! A17   A(4,5,6)              117.3168         estimate D2E/DX2                !
 ! A18   A(4,5,10)             121.8123         estimate D2E/DX2                !
 ! A19   A(6,5,10)             120.8701         estimate D2E/DX2                !
 ! A20   A(5,6,7)              119.5786         estimate D2E/DX2                !
 ! A21   A(5,6,69)             119.9195         estimate D2E/DX2                !
 ! A22   A(7,6,69)             120.5015         estimate D2E/DX2                !
 ! A23   A(6,7,8)              119.5382         estimate D2E/DX2                !
 ! A24   A(6,7,68)             120.5228         estimate D2E/DX2                !
 ! A25   A(8,7,68)             119.9387         estimate D2E/DX2                !
 ! A26   A(7,8,9)              120.9053         estimate D2E/DX2                !
 ! A27   A(7,8,13)             117.2687         estimate D2E/DX2                !
 ! A28   A(9,8,13)             121.825          estimate D2E/DX2                !
 ! A29   A(8,9,10)             119.5465         estimate D2E/DX2                !
 ! A30   A(8,9,12)             120.7491         estimate D2E/DX2                !
 ! A31   A(10,9,12)            119.7044         estimate D2E/DX2                !
 ! A32   A(5,10,9)             119.5609         estimate D2E/DX2                !
 ! A33   A(5,10,11)            120.7551         estimate D2E/DX2                !
 ! A34   A(9,10,11)            119.6839         estimate D2E/DX2                !
 ! A35   A(8,13,14)            110.9874         estimate D2E/DX2                !
 ! A36   A(8,13,67)            126.9901         estimate D2E/DX2                !
 ! A37   A(14,13,67)           122.0173         estimate D2E/DX2                !
 ! A38   A(13,14,15)           116.8718         estimate D2E/DX2                !
 ! A39   A(14,15,16)           108.9427         estimate D2E/DX2                !
 ! A40   A(14,15,65)           102.1849         estimate D2E/DX2                !
 ! A41   A(14,15,66)           110.5421         estimate D2E/DX2                !
 ! A42   A(16,15,65)           112.3199         estimate D2E/DX2                !
 ! A43   A(16,15,66)           112.3981         estimate D2E/DX2                !
 ! A44   A(65,15,66)           109.9852         estimate D2E/DX2                !
 ! A45   A(15,16,17)           103.2824         estimate D2E/DX2                !
 ! A46   A(15,16,63)           112.9365         estimate D2E/DX2                !
 ! A47   A(15,16,64)           112.2665         estimate D2E/DX2                !
 ! A48   A(17,16,63)           108.981          estimate D2E/DX2                !
 ! A49   A(17,16,64)           109.8005         estimate D2E/DX2                !
 ! A50   A(63,16,64)           109.367          estimate D2E/DX2                !
 ! A51   A(16,17,18)           115.781          estimate D2E/DX2                !
 ! A52   A(17,18,19)           110.7156         estimate D2E/DX2                !
 ! A53   A(17,18,62)           122.1588         estimate D2E/DX2                !
 ! A54   A(19,18,62)           127.1192         estimate D2E/DX2                !
 ! A55   A(18,19,20)           117.4017         estimate D2E/DX2                !
 ! A56   A(18,19,24)           121.6458         estimate D2E/DX2                !
 ! A57   A(20,19,24)           120.9497         estimate D2E/DX2                !
 ! A58   A(19,20,21)           119.5116         estimate D2E/DX2                !
 ! A59   A(19,20,61)           119.9253         estimate D2E/DX2                !
 ! A60   A(21,20,61)           120.5619         estimate D2E/DX2                !
 ! A61   A(20,21,22)           119.5896         estimate D2E/DX2                !
 ! A62   A(20,21,60)           120.4877         estimate D2E/DX2                !
 ! A63   A(22,21,60)           119.9217         estimate D2E/DX2                !
 ! A64   A(21,22,23)           120.8544         estimate D2E/DX2                !
 ! A65   A(21,22,27)           117.2949         estimate D2E/DX2                !
 ! A66   A(23,22,27)           121.8494         estimate D2E/DX2                !
 ! A67   A(22,23,24)           119.5618         estimate D2E/DX2                !
 ! A68   A(22,23,26)           120.7681         estimate D2E/DX2                !
 ! A69   A(24,23,26)           119.6701         estimate D2E/DX2                !
 ! A70   A(19,24,23)           119.529          estimate D2E/DX2                !
 ! A71   A(19,24,25)           120.6728         estimate D2E/DX2                !
 ! A72   A(23,24,25)           119.7981         estimate D2E/DX2                !
 ! A73   A(22,27,28)           111.467          estimate D2E/DX2                !
 ! A74   A(22,27,59)           126.8524         estimate D2E/DX2                !
 ! A75   A(28,27,59)           121.6625         estimate D2E/DX2                !
 ! A76   A(27,28,29)           116.5103         estimate D2E/DX2                !
 ! A77   A(28,29,30)           110.9901         estimate D2E/DX2                !
 ! A78   A(28,29,57)           101.7821         estimate D2E/DX2                !
 ! A79   A(28,29,58)           109.0025         estimate D2E/DX2                !
 ! A80   A(30,29,57)           112.5435         estimate D2E/DX2                !
 ! A81   A(30,29,58)           112.3014         estimate D2E/DX2                !
 ! A82   A(57,29,58)           109.6896         estimate D2E/DX2                !
 ! A83   A(29,30,31)           110.988          estimate D2E/DX2                !
 ! A84   A(29,30,55)           112.3132         estimate D2E/DX2                !
 ! A85   A(29,30,56)           112.5439         estimate D2E/DX2                !
 ! A86   A(31,30,55)           108.9998         estimate D2E/DX2                !
 ! A87   A(31,30,56)           101.7697         estimate D2E/DX2                !
 ! A88   A(55,30,56)           109.6919         estimate D2E/DX2                !
 ! A89   A(30,31,32)           116.5135         estimate D2E/DX2                !
 ! A90   A(31,32,33)           111.4212         estimate D2E/DX2                !
 ! A91   A(31,32,54)           121.7512         estimate D2E/DX2                !
 ! A92   A(33,32,54)           126.8098         estimate D2E/DX2                !
 ! A93   A(32,33,34)           117.3283         estimate D2E/DX2                !
 ! A94   A(32,33,38)           121.8153         estimate D2E/DX2                !
 ! A95   A(34,33,38)           120.8551         estimate D2E/DX2                !
 ! A96   A(33,34,35)           119.5862         estimate D2E/DX2                !
 ! A97   A(33,34,53)           119.9396         estimate D2E/DX2                !
 ! A98   A(35,34,53)           120.4732         estimate D2E/DX2                !
 ! A99   A(34,35,36)           119.5603         estimate D2E/DX2                !
 ! A100  A(34,35,52)           120.4727         estimate D2E/DX2                !
 ! A101  A(36,35,52)           119.9664         estimate D2E/DX2                !
 ! A102  A(35,36,37)           120.8569         estimate D2E/DX2                !
 ! A103  A(35,36,41)           117.2993         estimate D2E/DX2                !
 ! A104  A(37,36,41)           121.8424         estimate D2E/DX2                !
 ! A105  A(36,37,38)           119.5716         estimate D2E/DX2                !
 ! A106  A(36,37,40)           120.8048         estimate D2E/DX2                !
 ! A107  A(38,37,40)           119.6235         estimate D2E/DX2                !
 ! A108  A(33,38,37)           119.5673         estimate D2E/DX2                !
 ! A109  A(33,38,39)           120.7616         estimate D2E/DX2                !
 ! A110  A(37,38,39)           119.6711         estimate D2E/DX2                !
 ! A111  A(36,41,42)           111.2519         estimate D2E/DX2                !
 ! A112  A(36,41,51)           126.0136         estimate D2E/DX2                !
 ! A113  A(42,41,51)           122.733          estimate D2E/DX2                !
 ! A114  A(41,42,43)           118.0143         estimate D2E/DX2                !
 ! A115  A(42,43,44)           110.8352         estimate D2E/DX2                !
 ! A116  A(42,43,49)           101.034          estimate D2E/DX2                !
 ! A117  A(42,43,50)           109.8041         estimate D2E/DX2                !
 ! A118  A(44,43,49)           112.879          estimate D2E/DX2                !
 ! A119  A(44,43,50)           112.0281         estimate D2E/DX2                !
 ! A120  A(49,43,50)           109.7224         estimate D2E/DX2                !
 ! A121  A(43,44,45)           111.1107         estimate D2E/DX2                !
 ! A122  A(43,44,47)           111.8021         estimate D2E/DX2                !
 ! A123  A(43,44,48)           111.9854         estimate D2E/DX2                !
 ! A124  A(45,44,47)           109.1048         estimate D2E/DX2                !
 ! A125  A(45,44,48)           103.2361         estimate D2E/DX2                !
 ! A126  A(47,44,48)           109.2366         estimate D2E/DX2                !
 ! A127  A(44,45,46)           109.4087         estimate D2E/DX2                !
 ! A128  A(1,73,74)            116.5188         estimate D2E/DX2                !
 ! A129  A(73,74,75)           111.4162         estimate D2E/DX2                !
 ! A130  A(73,74,89)           121.7367         estimate D2E/DX2                !
 ! A131  A(75,74,89)           126.8294         estimate D2E/DX2                !
 ! A132  A(74,75,76)           117.316          estimate D2E/DX2                !
 ! A133  A(74,75,80)           121.8347         estimate D2E/DX2                !
 ! A134  A(76,75,80)           120.8484         estimate D2E/DX2                !
 ! A135  A(75,76,77)           119.5687         estimate D2E/DX2                !
 ! A136  A(75,76,88)           119.919          estimate D2E/DX2                !
 ! A137  A(77,76,88)           120.5118         estimate D2E/DX2                !
 ! A138  A(76,77,78)           119.6189         estimate D2E/DX2                !
 ! A139  A(76,77,87)           120.4489         estimate D2E/DX2                !
 ! A140  A(78,77,87)           119.9322         estimate D2E/DX2                !
 ! A141  A(77,78,79)           120.7889         estimate D2E/DX2                !
 ! A142  A(77,78,83)           117.2234         estimate D2E/DX2                !
 ! A143  A(79,78,83)           121.9877         estimate D2E/DX2                !
 ! A144  A(78,79,80)           119.5855         estimate D2E/DX2                !
 ! A145  A(78,79,82)           120.7705         estimate D2E/DX2                !
 ! A146  A(80,79,82)           119.644          estimate D2E/DX2                !
 ! A147  A(75,80,79)           119.5891         estimate D2E/DX2                !
 ! A148  A(75,80,81)           120.753          estimate D2E/DX2                !
 ! A149  A(79,80,81)           119.6579         estimate D2E/DX2                !
 ! A150  A(78,83,84)           112.1684         estimate D2E/DX2                !
 ! A151  A(78,83,86)           127.5087         estimate D2E/DX2                !
 ! A152  A(84,83,86)           120.3229         estimate D2E/DX2                !
 ! A153  A(83,84,85)           113.1482         estimate D2E/DX2                !
 ! D1    D(73,1,2,3)           131.5648         estimate D2E/DX2                !
 ! D2    D(73,1,2,71)         -106.1309         estimate D2E/DX2                !
 ! D3    D(73,1,2,72)           18.2543         estimate D2E/DX2                !
 ! D4    D(90,1,2,3)            18.253          estimate D2E/DX2                !
 ! D5    D(90,1,2,71)          140.5573         estimate D2E/DX2                !
 ! D6    D(90,1,2,72)          -95.0575         estimate D2E/DX2                !
 ! D7    D(91,1,2,3)          -106.1302         estimate D2E/DX2                !
 ! D8    D(91,1,2,71)           16.1741         estimate D2E/DX2                !
 ! D9    D(91,1,2,72)          140.5593         estimate D2E/DX2                !
 ! D10   D(2,1,73,74)           61.7252         estimate D2E/DX2                !
 ! D11   D(90,1,73,74)        -178.322          estimate D2E/DX2                !
 ! D12   D(91,1,73,74)         -62.4784         estimate D2E/DX2                !
 ! D13   D(1,2,3,4)             61.7548         estimate D2E/DX2                !
 ! D14   D(71,2,3,4)           -62.449          estimate D2E/DX2                !
 ! D15   D(72,2,3,4)          -178.294          estimate D2E/DX2                !
 ! D16   D(2,3,4,5)            175.9383         estimate D2E/DX2                !
 ! D17   D(2,3,4,70)            -5.4905         estimate D2E/DX2                !
 ! D18   D(3,4,5,6)            166.0809         estimate D2E/DX2                !
 ! D19   D(3,4,5,10)           -14.2445         estimate D2E/DX2                !
 ! D20   D(70,4,5,6)           -12.4012         estimate D2E/DX2                !
 ! D21   D(70,4,5,10)          167.2734         estimate D2E/DX2                !
 ! D22   D(4,5,6,7)            179.9081         estimate D2E/DX2                !
 ! D23   D(4,5,6,69)             0.1235         estimate D2E/DX2                !
 ! D24   D(10,5,6,7)             0.2303         estimate D2E/DX2                !
 ! D25   D(10,5,6,69)         -179.5543         estimate D2E/DX2                !
 ! D26   D(4,5,10,9)          -179.8322         estimate D2E/DX2                !
 ! D27   D(4,5,10,11)            0.0701         estimate D2E/DX2                !
 ! D28   D(6,5,10,9)            -0.169          estimate D2E/DX2                !
 ! D29   D(6,5,10,11)          179.7332         estimate D2E/DX2                !
 ! D30   D(5,6,7,8)             -0.1768         estimate D2E/DX2                !
 ! D31   D(5,6,7,68)           179.6559         estimate D2E/DX2                !
 ! D32   D(69,6,7,8)           179.6064         estimate D2E/DX2                !
 ! D33   D(69,6,7,68)           -0.5609         estimate D2E/DX2                !
 ! D34   D(6,7,8,9)              0.0666         estimate D2E/DX2                !
 ! D35   D(6,7,8,13)           179.7162         estimate D2E/DX2                !
 ! D36   D(68,7,8,9)          -179.7671         estimate D2E/DX2                !
 ! D37   D(68,7,8,13)           -0.1175         estimate D2E/DX2                !
 ! D38   D(7,8,9,10)            -0.0055         estimate D2E/DX2                !
 ! D39   D(7,8,9,12)           179.9745         estimate D2E/DX2                !
 ! D40   D(13,8,9,10)         -179.6389         estimate D2E/DX2                !
 ! D41   D(13,8,9,12)            0.341          estimate D2E/DX2                !
 ! D42   D(7,8,13,14)          162.7347         estimate D2E/DX2                !
 ! D43   D(7,8,13,67)          -16.4435         estimate D2E/DX2                !
 ! D44   D(9,8,13,14)          -17.6191         estimate D2E/DX2                !
 ! D45   D(9,8,13,67)          163.2027         estimate D2E/DX2                !
 ! D46   D(8,9,10,5)             0.0557         estimate D2E/DX2                !
 ! D47   D(8,9,10,11)         -179.8476         estimate D2E/DX2                !
 ! D48   D(12,9,10,5)         -179.9244         estimate D2E/DX2                !
 ! D49   D(12,9,10,11)           0.1722         estimate D2E/DX2                !
 ! D50   D(8,13,14,15)         179.3242         estimate D2E/DX2                !
 ! D51   D(67,13,14,15)         -1.45           estimate D2E/DX2                !
 ! D52   D(13,14,15,16)         73.4922         estimate D2E/DX2                !
 ! D53   D(13,14,15,65)       -167.5027         estimate D2E/DX2                !
 ! D54   D(13,14,15,66)        -50.482          estimate D2E/DX2                !
 ! D55   D(14,15,16,17)        160.06           estimate D2E/DX2                !
 ! D56   D(14,15,16,63)        -82.3732         estimate D2E/DX2                !
 ! D57   D(14,15,16,64)         41.8465         estimate D2E/DX2                !
 ! D58   D(65,15,16,17)         47.5946         estimate D2E/DX2                !
 ! D59   D(65,15,16,63)        165.1613         estimate D2E/DX2                !
 ! D60   D(65,15,16,64)        -70.619          estimate D2E/DX2                !
 ! D61   D(66,15,16,17)        -77.072          estimate D2E/DX2                !
 ! D62   D(66,15,16,63)         40.4948         estimate D2E/DX2                !
 ! D63   D(66,15,16,64)        164.7145         estimate D2E/DX2                !
 ! D64   D(15,16,17,18)       -176.0432         estimate D2E/DX2                !
 ! D65   D(63,16,17,18)         63.6491         estimate D2E/DX2                !
 ! D66   D(64,16,17,18)        -56.1235         estimate D2E/DX2                !
 ! D67   D(16,17,18,19)       -179.1673         estimate D2E/DX2                !
 ! D68   D(16,17,18,62)          1.6885         estimate D2E/DX2                !
 ! D69   D(17,18,19,20)       -159.079          estimate D2E/DX2                !
 ! D70   D(17,18,19,24)         21.5198         estimate D2E/DX2                !
 ! D71   D(62,18,19,20)         20.0123         estimate D2E/DX2                !
 ! D72   D(62,18,19,24)       -159.3889         estimate D2E/DX2                !
 ! D73   D(18,19,20,21)       -179.9711         estimate D2E/DX2                !
 ! D74   D(18,19,20,61)         -0.3802         estimate D2E/DX2                !
 ! D75   D(24,19,20,21)         -0.5655         estimate D2E/DX2                !
 ! D76   D(24,19,20,61)        179.0255         estimate D2E/DX2                !
 ! D77   D(18,19,24,23)        179.9035         estimate D2E/DX2                !
 ! D78   D(18,19,24,25)          0.0305         estimate D2E/DX2                !
 ! D79   D(20,19,24,23)          0.5233         estimate D2E/DX2                !
 ! D80   D(20,19,24,25)       -179.3497         estimate D2E/DX2                !
 ! D81   D(19,20,21,22)          0.0782         estimate D2E/DX2                !
 ! D82   D(19,20,21,60)        179.7158         estimate D2E/DX2                !
 ! D83   D(61,20,21,22)       -179.5101         estimate D2E/DX2                !
 ! D84   D(61,20,21,60)          0.1275         estimate D2E/DX2                !
 ! D85   D(20,21,22,23)          0.4489         estimate D2E/DX2                !
 ! D86   D(20,21,22,27)       -179.9606         estimate D2E/DX2                !
 ! D87   D(60,21,22,23)       -179.1908         estimate D2E/DX2                !
 ! D88   D(60,21,22,27)          0.3996         estimate D2E/DX2                !
 ! D89   D(21,22,23,24)         -0.4911         estimate D2E/DX2                !
 ! D90   D(21,22,23,26)        179.4557         estimate D2E/DX2                !
 ! D91   D(27,22,23,24)        179.9374         estimate D2E/DX2                !
 ! D92   D(27,22,23,26)         -0.1158         estimate D2E/DX2                !
 ! D93   D(21,22,27,28)        167.392          estimate D2E/DX2                !
 ! D94   D(21,22,27,59)        -11.0679         estimate D2E/DX2                !
 ! D95   D(23,22,27,28)        -13.0219         estimate D2E/DX2                !
 ! D96   D(23,22,27,59)        168.5182         estimate D2E/DX2                !
 ! D97   D(22,23,24,19)          0.0056         estimate D2E/DX2                !
 ! D98   D(22,23,24,25)        179.8797         estimate D2E/DX2                !
 ! D99   D(26,23,24,19)       -179.9419         estimate D2E/DX2                !
 ! D100  D(26,23,24,25)         -0.0677         estimate D2E/DX2                !
 ! D101  D(22,27,28,29)        175.8358         estimate D2E/DX2                !
 ! D102  D(59,27,28,29)         -5.6121         estimate D2E/DX2                !
 ! D103  D(27,28,29,30)         61.6907         estimate D2E/DX2                !
 ! D104  D(27,28,29,57)       -178.3426         estimate D2E/DX2                !
 ! D105  D(27,28,29,58)        -62.5035         estimate D2E/DX2                !
 ! D106  D(28,29,30,31)        131.4481         estimate D2E/DX2                !
 ! D107  D(28,29,30,55)       -106.2512         estimate D2E/DX2                !
 ! D108  D(28,29,30,56)         18.1326         estimate D2E/DX2                !
 ! D109  D(57,29,30,31)         18.1162         estimate D2E/DX2                !
 ! D110  D(57,29,30,55)        140.4169         estimate D2E/DX2                !
 ! D111  D(57,29,30,56)        -95.1994         estimate D2E/DX2                !
 ! D112  D(58,29,30,31)       -106.2548         estimate D2E/DX2                !
 ! D113  D(58,29,30,55)         16.0459         estimate D2E/DX2                !
 ! D114  D(58,29,30,56)        140.4297         estimate D2E/DX2                !
 ! D115  D(29,30,31,32)         61.716          estimate D2E/DX2                !
 ! D116  D(55,30,31,32)        -62.49           estimate D2E/DX2                !
 ! D117  D(56,30,31,32)       -178.3246         estimate D2E/DX2                !
 ! D118  D(30,31,32,33)        175.938          estimate D2E/DX2                !
 ! D119  D(30,31,32,54)         -5.4981         estimate D2E/DX2                !
 ! D120  D(31,32,33,34)        166.391          estimate D2E/DX2                !
 ! D121  D(31,32,33,38)        -14.0223         estimate D2E/DX2                !
 ! D122  D(54,32,33,34)        -12.0837         estimate D2E/DX2                !
 ! D123  D(54,32,33,38)        167.5029         estimate D2E/DX2                !
 ! D124  D(32,33,34,35)        179.9762         estimate D2E/DX2                !
 ! D125  D(32,33,34,53)          0.3248         estimate D2E/DX2                !
 ! D126  D(38,33,34,35)          0.3853         estimate D2E/DX2                !
 ! D127  D(38,33,34,53)       -179.266          estimate D2E/DX2                !
 ! D128  D(32,33,38,37)       -179.9821         estimate D2E/DX2                !
 ! D129  D(32,33,38,39)         -0.0118         estimate D2E/DX2                !
 ! D130  D(34,33,38,37)         -0.4098         estimate D2E/DX2                !
 ! D131  D(34,33,38,39)        179.5605         estimate D2E/DX2                !
 ! D132  D(33,34,35,36)          0.0334         estimate D2E/DX2                !
 ! D133  D(33,34,35,52)       -179.696          estimate D2E/DX2                !
 ! D134  D(53,34,35,36)        179.6828         estimate D2E/DX2                !
 ! D135  D(53,34,35,52)         -0.0466         estimate D2E/DX2                !
 ! D136  D(34,35,36,37)         -0.4281         estimate D2E/DX2                !
 ! D137  D(34,35,36,41)       -179.9962         estimate D2E/DX2                !
 ! D138  D(52,35,36,37)        179.3027         estimate D2E/DX2                !
 ! D139  D(52,35,36,41)         -0.2654         estimate D2E/DX2                !
 ! D140  D(35,36,37,38)          0.4036         estimate D2E/DX2                !
 ! D141  D(35,36,37,40)       -179.5823         estimate D2E/DX2                !
 ! D142  D(41,36,37,38)        179.9518         estimate D2E/DX2                !
 ! D143  D(41,36,37,40)         -0.0341         estimate D2E/DX2                !
 ! D144  D(35,36,41,42)       -166.6216         estimate D2E/DX2                !
 ! D145  D(35,36,41,51)         12.9283         estimate D2E/DX2                !
 ! D146  D(37,36,41,42)         13.8148         estimate D2E/DX2                !
 ! D147  D(37,36,41,51)       -166.6353         estimate D2E/DX2                !
 ! D148  D(36,37,38,33)          0.0153         estimate D2E/DX2                !
 ! D149  D(36,37,38,39)       -179.9552         estimate D2E/DX2                !
 ! D150  D(40,37,38,33)       -179.9987         estimate D2E/DX2                !
 ! D151  D(40,37,38,39)          0.0308         estimate D2E/DX2                !
 ! D152  D(36,41,42,43)        177.8025         estimate D2E/DX2                !
 ! D153  D(51,41,42,43)         -1.7646         estimate D2E/DX2                !
 ! D154  D(41,42,43,44)         74.0566         estimate D2E/DX2                !
 ! D155  D(41,42,43,49)       -166.0734         estimate D2E/DX2                !
 ! D156  D(41,42,43,50)        -50.2467         estimate D2E/DX2                !
 ! D157  D(42,43,44,45)       -102.7911         estimate D2E/DX2                !
 ! D158  D(42,43,44,47)         19.3705         estimate D2E/DX2                !
 ! D159  D(42,43,44,48)        142.3391         estimate D2E/DX2                !
 ! D160  D(49,43,44,45)        144.6978         estimate D2E/DX2                !
 ! D161  D(49,43,44,47)        -93.1406         estimate D2E/DX2                !
 ! D162  D(49,43,44,48)         29.8279         estimate D2E/DX2                !
 ! D163  D(50,43,44,45)         20.2359         estimate D2E/DX2                !
 ! D164  D(50,43,44,47)        142.3975         estimate D2E/DX2                !
 ! D165  D(50,43,44,48)        -94.6339         estimate D2E/DX2                !
 ! D166  D(43,44,45,46)         51.4172         estimate D2E/DX2                !
 ! D167  D(47,44,45,46)        -72.2974         estimate D2E/DX2                !
 ! D168  D(48,44,45,46)        171.6203         estimate D2E/DX2                !
 ! D169  D(1,73,74,75)         175.939          estimate D2E/DX2                !
 ! D170  D(1,73,74,89)          -5.4953         estimate D2E/DX2                !
 ! D171  D(73,74,75,76)        165.9534         estimate D2E/DX2                !
 ! D172  D(73,74,75,80)        -14.3991         estimate D2E/DX2                !
 ! D173  D(89,74,75,76)        -12.5227         estimate D2E/DX2                !
 ! D174  D(89,74,75,80)        167.1248         estimate D2E/DX2                !
 ! D175  D(74,75,76,77)        179.9254         estimate D2E/DX2                !
 ! D176  D(74,75,76,88)          0.1831         estimate D2E/DX2                !
 ! D177  D(80,75,76,77)          0.2743         estimate D2E/DX2                !
 ! D178  D(80,75,76,88)       -179.468          estimate D2E/DX2                !
 ! D179  D(74,75,80,79)       -179.878          estimate D2E/DX2                !
 ! D180  D(74,75,80,81)          0.065          estimate D2E/DX2                !
 ! D181  D(76,75,80,79)         -0.2429         estimate D2E/DX2                !
 ! D182  D(76,75,80,81)        179.7002         estimate D2E/DX2                !
 ! D183  D(75,76,77,78)         -0.1148         estimate D2E/DX2                !
 ! D184  D(75,76,77,87)        179.9049         estimate D2E/DX2                !
 ! D185  D(88,76,77,78)        179.6259         estimate D2E/DX2                !
 ! D186  D(88,76,77,87)         -0.3545         estimate D2E/DX2                !
 ! D187  D(76,77,78,79)         -0.0732         estimate D2E/DX2                !
 ! D188  D(76,77,78,83)        179.8594         estimate D2E/DX2                !
 ! D189  D(87,77,78,79)        179.9072         estimate D2E/DX2                !
 ! D190  D(87,77,78,83)         -0.1601         estimate D2E/DX2                !
 ! D191  D(77,78,79,80)          0.1046         estimate D2E/DX2                !
 ! D192  D(77,78,79,82)       -179.9017         estimate D2E/DX2                !
 ! D193  D(83,78,79,80)       -179.8248         estimate D2E/DX2                !
 ! D194  D(83,78,79,82)          0.1688         estimate D2E/DX2                !
 ! D195  D(77,78,83,84)        176.0706         estimate D2E/DX2                !
 ! D196  D(77,78,83,86)         -3.8521         estimate D2E/DX2                !
 ! D197  D(79,78,83,84)         -3.9976         estimate D2E/DX2                !
 ! D198  D(79,78,83,86)        176.0797         estimate D2E/DX2                !
 ! D199  D(78,79,80,75)          0.0526         estimate D2E/DX2                !
 ! D200  D(78,79,80,81)       -179.8911         estimate D2E/DX2                !
 ! D201  D(82,79,80,75)       -179.9411         estimate D2E/DX2                !
 ! D202  D(82,79,80,81)          0.1152         estimate D2E/DX2                !
 ! D203  D(78,83,84,85)       -179.8746         estimate D2E/DX2                !
 ! D204  D(86,83,84,85)          0.0544         estimate D2E/DX2                !
 --------------------------------------------------------------------------------
 Trust Radius=3.00D-01 FncErr=1.00D-07 GrdErr=1.00D-06 EigMax=2.50D+02 EigMin=1.00D-04
 Number of steps in this run=    461 maximum allowed number of steps=    546.
 GradGradGradGradGradGradGradGradGradGradGradGradGradGradGradGradGradGrad

 Stoichiometry    C40H34O17
 Framework group  C1[X(C40H34O17)]
 Deg. of freedom   267
 Full point group                 C1      NOp   1
 Largest Abelian subgroup         C1      NOp   1
 Largest concise Abelian subgroup C1      NOp   1
                         Standard orientation:                         
 ---------------------------------------------------------------------
 Center     Atomic      Atomic             Coordinates (Angstroms)
 Number     Number       Type             X           Y           Z
 ---------------------------------------------------------------------
      1          6           0      -11.516414   -0.429396    0.012861
      2          6           0      -10.466183   -0.054542   -1.032508
      3          8           0       -9.154007   -0.387200   -0.580472
      4          6           0       -8.911021   -1.700857   -0.339656
      5          6           0       -7.498793   -1.929630    0.027851
      6          6           0       -7.174268   -3.168561    0.587476
      7          6           0       -5.857800   -3.434922    0.949207
      8          6           0       -4.876509   -2.461032    0.744613
      9          6           0       -5.199353   -1.225665    0.184167
     10          6           0       -6.519214   -0.958419   -0.177158
     11          1           0       -6.774206    0.007734   -0.618716
     12          1           0       -4.430552   -0.466309    0.025805
     13          6           0       -3.496811   -2.794404    1.152773
     14          8           0       -2.599713   -1.952489    0.571463
     15          6           0       -1.227158   -2.153433    0.892221
     16          6           0       -0.727738   -3.411393    0.174559
     17          8           0        0.693958   -3.244029    0.168469
     18          6           0        1.398390   -4.198064   -0.494277
     19          6           0        2.849202   -3.927625   -0.413230
     20          6           0        3.668502   -4.519785   -1.377593
     21          6           0        5.040876   -4.295224   -1.342280
     22          6           0        5.581711   -3.482051   -0.342201
     23          6           0        4.764272   -2.900212    0.626521
     24          6           0        3.388667   -3.124459    0.590751
     25          1           0        2.745307   -2.672434    1.348420
     26          1           0        5.189461   -2.272169    1.412580
     27          6           0        7.044056   -3.277279   -0.353069
     28          8           0        7.410749   -2.268592    0.478576
     29          6           0        8.811777   -2.038326    0.621453
     30          6           0        9.442178   -1.650986   -0.716034
     31          8           0       10.262830   -0.491458   -0.577652
     32          6           0       11.326477   -0.598220    0.258825
     33          6           0       12.149765    0.628272    0.243989
     34          6           0       13.098897    0.776186    1.258990
     35          6           0       13.900085    1.913117    1.289838
     36          6           0       13.744709    2.893042    0.305458
     37          6           0       12.803108    2.741696   -0.712232
     38          6           0       12.000642    1.601972   -0.743244
     39          1           0       11.263119    1.481421   -1.540022
     40          1           0       12.687097    3.504738   -1.484808
     41          6           0       14.621838    4.080032    0.386110
     42          8           0       14.185245    5.068895   -0.428357
     43          6           0       14.902410    6.304925   -0.427469
     44          6           0       16.234310    6.161372   -1.164337
     45          8           0       17.307070    6.061042   -0.257953
     46          1           0       17.111547    5.355802    0.405199
     47          1           0       16.241233    5.279639   -1.832662
     48          1           0       16.482483    7.065876   -1.751524
     49          1           0       14.188319    6.964303   -0.954679
     50          1           0       15.039237    6.658126    0.611948
     51          8           0       15.602415    4.192364    1.081990
     52          1           0       14.651427    2.041527    2.075276
     53          1           0       13.211435   -0.002820    2.019232
     54          8           0       11.511061   -1.584115    0.927823
     55          1           0       10.046260   -2.470045   -1.148273
     56          1           0        8.692180   -1.309915   -1.455954
     57          1           0        8.830999   -1.209591    1.355701
     58          1           0        9.281326   -2.937316    1.061954
     59          8           0        7.853430   -3.877387   -1.015451
     60          1           0        5.697958   -4.754751   -2.086886
     61          1           0        3.229272   -5.159796   -2.148345
     62          8           0        0.860312   -5.109626   -1.067287
     63          1           0       -0.977795   -4.343270    0.714288
     64          1           0       -1.101324   -3.477525   -0.863338
     65          1           0       -0.757573   -1.230321    0.499022
     66          1           0       -1.089346   -2.210428    1.985639
     67          8           0       -3.153343   -3.687134    1.884268
     68          1           0       -5.587525   -4.397520    1.393721
     69          1           0       -7.954030   -3.922040    0.734703
     70          8           0       -9.784080   -2.529800   -0.405106
     71          1           0      -10.647719   -0.547498   -2.005467
     72          1           0      -10.384207    1.040169   -1.178299
     73          8           0      -12.417896    0.652917    0.242402
     74          6           0      -13.156081    1.062667   -0.820500
     75          6           0      -14.115444    2.118113   -0.436174
     76          6           0      -14.722302    2.839875   -1.467865
     77          6           0      -15.634422    3.843388   -1.159098
     78          6           0      -15.934966    4.116331    0.179043
     79          6           0      -15.332088    3.393193    1.207979
     80          6           0      -14.417012    2.387424    0.898236
     81          1           0      -13.945456    1.819093    1.703145
     82          1           0      -15.568409    3.605700    2.253693
     83          6           0      -16.906880    5.193338    0.446256
     84          8           0      -17.186835    5.314303    1.769968
     85          1           0      -17.840410    6.033038    1.965845
     86          8           0      -17.434969    5.920378   -0.355964
     87          1           0      -16.116903    4.418525   -1.955434
     88          1           0      -14.480984    2.609982   -2.509951
     89          8           0      -12.986906    0.606644   -1.923739
     90          1           0      -11.079429   -0.576900    1.019706
     91          1           0      -12.095833   -1.325480   -0.276821
 ---------------------------------------------------------------------
 Rotational constants (GHZ):           0.0538282           0.0053178           0.0048989
 Standard basis: 6-31G(d) (6D, 7F)
 There are   923 symmetry adapted cartesian basis functions of A   symmetry.
 There are   923 symmetry adapted basis functions of A   symmetry.
   923 basis functions,  1732 primitive gaussians,   923 cartesian basis functions
   205 alpha electrons      205 beta electrons
       nuclear repulsion energy      6059.7654739753 Hartrees.
 NAtoms=   91 NActive=   91 NUniq=   91 SFac= 1.00D+00 NAtFMM=   60 NAOKFM=T Big=T
 Integral buffers will be    131072 words long.
 Raffenetti 2 integral format.
 Two-electron integral symmetry is turned on.
 One-electron integrals computed using PRISM.
 NBasis=   923 RedAO= T EigKep=  4.17D-04  NBF=   923
 NBsUse=   923 1.00D-06 EigRej= -1.00D+00 NBFU=   923
 ExpMin= 1.61D-01 ExpMax= 5.48D+03 ExpMxC= 8.25D+02 IAcc=3 IRadAn=         5 AccDes= 0.00D+00
 Harris functional with IExCor= 1009 and IRadAn=       5 diagonalized for initial guess.
 HarFok:  IExCor= 1009 AccDes= 0.00D+00 IRadAn=         5 IDoV= 1 UseB2=F ITyADJ=14
 ICtDFT=  3500011 ScaDFX=  1.000000  1.000000  1.000000  1.000000
 FoFCou: FMM=F IPFlag=           0 FMFlag=      100000 FMFlg1=        2001
         NFxFlg=           0 DoJE=T BraDBF=F KetDBF=T FulRan=T
         wScrn=  0.000000 ICntrl=       500 IOpCl=  0 I1Cent=   200000004 NGrid=           0
         NMat0=    1 NMatS0=      1 NMatT0=    0 NMatD0=    1 NMtDS0=    0 NMtDT0=    0
 Petite list used in FoFCou.
 Requested convergence on RMS density matrix=1.00D-08 within 128 cycles.
 Requested convergence on MAX density matrix=1.00D-06.
 Requested convergence on             energy=1.00D-06.
 No special actions if energy rises.
 Integral accuracy reduced to 1.0D-05 until final iterations.
 EnCoef did     2 forward-backward iterations
 Initial convergence to 1.0D-05 achieved.  Increase integral accuracy.
 SCF Done:  E(RPBE-PBE) =  -2820.39754332     A.U. after   15 cycles
            NFock= 15  Conv=0.71D-08     -V/T= 2.0087

 **********************************************************************

            Population analysis using the SCF Density.

 **********************************************************************

 Orbital symmetries:
       Occupied  (A) (A) (A) (A) (A) (A) (A) (A) (A) (A) (A) (A)
                 (A) (A) (A) (A) (A) (A) (A) (A) (A) (A) (A) (A)
                 (A) (A) (A) (A) (A) (A) (A) (A) (A) (A) (A) (A)
                 (A) (A) (A) (A) (A) (A) (A) (A) (A) (A) (A) (A)
                 (A) (A) (A) (A) (A) (A) (A) (A) (A) (A) (A) (A)
                 (A) (A) (A) (A) (A) (A) (A) (A) (A) (A) (A) (A)
                 (A) (A) (A) (A) (A) (A) (A) (A) (A) (A) (A) (A)
                 (A) (A) (A) (A) (A) (A) (A) (A) (A) (A) (A) (A)
                 (A) (A) (A) (A) (A) (A) (A) (A) (A) (A) (A) (A)
                 (A) (A) (A) (A) (A) (A) (A) (A) (A) (A) (A) (A)
                 (A) (A) (A) (A) (A) (A) (A) (A) (A) (A) (A) (A)
                 (A) (A) (A) (A) (A) (A) (A) (A) (A) (A) (A) (A)
                 (A) (A) (A) (A) (A) (A) (A) (A) (A) (A) (A) (A)
                 (A) (A) (A) (A) (A) (A) (A) (A) (A) (A) (A) (A)
                 (A) (A) (A) (A) (A) (A) (A) (A) (A) (A) (A) (A)
                 (A) (A) (A) (A) (A) (A) (A) (A) (A) (A) (A) (A)
                 (A) (A) (A) (A) (A) (A) (A) (A) (A) (A) (A) (A)
                 (A)
       Virtual   (A) (A) (A) (A) (A) (A) (A) (A) (A) (A) (A) (A)
                 (A) (A) (A) (A) (A) (A) (A) (A) (A) (A) (A) (A)
                 (A) (A) (A) (A) (A) (A) (A) (A) (A) (A) (A) (A)
                 (A) (A) (A) (A) (A) (A) (A) (A) (A) (A) (A) (A)
                 (A) (A) (A) (A) (A) (A) (A) (A) (A) (A) (A) (A)
                 (A) (A) (A) (A) (A) (A) (A) (A) (A) (A) (A) (A)
                 (A) (A) (A) (A) (A) (A) (A) (A) (A) (A) (A) (A)
                 (A) (A) (A) (A) (A) (A) (A) (A) (A) (A) (A) (A)
                 (A) (A) (A) (A) (A) (A) (A) (A) (A) (A) (A) (A)
                 (A) (A) (A) (A) (A) (A) (A) (A) (A) (A) (A) (A)
                 (A) (A) (A) (A) (A) (A) (A) (A) (A) (A) (A) (A)
                 (A) (A) (A) (A) (A) (A) (A) (A) (A) (A) (A) (A)
                 (A) (A) (A) (A) (A) (A) (A) (A) (A) (A) (A) (A)
                 (A) (A) (A) (A) (A) (A) (A) (A) (A) (A) (A) (A)
                 (A) (A) (A) (A) (A) (A) (A) (A) (A) (A) (A) (A)
                 (A) (A) (A) (A) (A) (A) (A) (A) (A) (A) (A) (A)
                 (A) (A) (A) (A) (A) (A) (A) (A) (A) (A) (A) (A)
                 (A) (A) (A) (A) (A) (A) (A) (A) (A) (A) (A) (A)
                 (A) (A) (A) (A) (A) (A) (A) (A) (A) (A) (A) (A)
                 (A) (A) (A) (A) (A) (A) (A) (A) (A) (A) (A) (A)
                 (A) (A) (A) (A) (A) (A) (A) (A) (A) (A) (A) (A)
                 (A) (A) (A) (A) (A) (A) (A) (A) (A) (A) (A) (A)
                 (A) (A) (A) (A) (A) (A) (A) (A) (A) (A) (A) (A)
                 (A) (A) (A) (A) (A) (A) (A) (A) (A) (A) (A) (A)
                 (A) (A) (A) (A) (A) (A) (A) (A) (A) (A) (A) (A)
                 (A) (A) (A) (A) (A) (A) (A) (A) (A) (A) (A) (A)
                 (A) (A) (A) (A) (A) (A) (A) (A) (A) (A) (A) (A)
                 (A) (A) (A) (A) (A) (A) (A) (A) (A) (A) (A) (A)
                 (A) (A) (A) (A) (A) (A) (A) (A) (A) (A) (A) (A)
                 (A) (A) (A) (A) (A) (A) (A) (A) (A) (A) (A) (A)
                 (A) (A) (A) (A) (A) (A) (A) (A) (A) (A) (A) (A)
                 (A) (A) (A) (A) (A) (A) (A) (A) (A) (A) (A) (A)
                 (A) (A) (A) (A) (A) (A) (A) (A) (A) (A) (A) (A)
                 (A) (A) (A) (A) (A) (A) (A) (A) (A) (A) (A) (A)
                 (A) (A) (A) (A) (A) (A) (A) (A) (A) (A) (A) (A)
                 (A) (A) (A) (A) (A) (A) (A) (A) (A) (A) (A) (A)
                 (A) (A) (A) (A) (A) (A) (A) (A) (A) (A) (A) (A)
                 (A) (A) (A) (A) (A) (A) (A) (A) (A) (A) (A) (A)
                 (A) (A) (A) (A) (A) (A) (A) (A) (A) (A) (A) (A)
                 (A) (A) (A) (A) (A) (A) (A) (A) (A) (A) (A) (A)
                 (A) (A) (A) (A) (A) (A) (A) (A) (A) (A) (A) (A)
                 (A) (A) (A) (A) (A) (A) (A) (A) (A) (A) (A) (A)
                 (A) (A) (A) (A) (A) (A) (A) (A) (A) (A) (A) (A)
                 (A) (A) (A) (A) (A) (A) (A) (A) (A) (A) (A) (A)
                 (A) (A) (A) (A) (A) (A) (A) (A) (A) (A) (A) (A)
                 (A) (A) (A) (A) (A) (A) (A) (A) (A) (A) (A) (A)
                 (A) (A) (A) (A) (A) (A) (A) (A) (A) (A) (A) (A)
                 (A) (A) (A) (A) (A) (A) (A) (A) (A) (A) (A) (A)
                 (A) (A) (A) (A) (A) (A) (A) (A) (A) (A) (A) (A)
                 (A) (A) (A) (A) (A) (A) (A) (A) (A) (A) (A) (A)
                 (A) (A) (A) (A) (A) (A) (A) (A) (A) (A) (A) (A)
                 (A) (A) (A) (A) (A) (A) (A) (A) (A) (A) (A) (A)
                 (A) (A) (A) (A) (A) (A) (A) (A) (A) (A) (A) (A)
                 (A) (A) (A) (A) (A) (A) (A) (A) (A) (A) (A) (A)
                 (A) (A) (A) (A) (A) (A) (A) (A) (A) (A) (A) (A)
                 (A) (A) (A) (A) (A) (A) (A) (A) (A) (A) (A) (A)
                 (A) (A) (A) (A) (A) (A) (A) (A) (A) (A) (A) (A)
                 (A) (A) (A) (A) (A) (A) (A) (A) (A) (A) (A) (A)
                 (A) (A) (A) (A) (A) (A) (A) (A) (A) (A) (A) (A)
                 (A) (A) (A) (A) (A) (A) (A) (A) (A) (A)
 The electronic state is 1-A.
 Alpha  occ. eigenvalues --  -18.82871 -18.82832 -18.82609 -18.82414 -18.82343
 Alpha  occ. eigenvalues --  -18.82289 -18.82278 -18.82022 -18.78014 -18.77289
 Alpha  occ. eigenvalues --  -18.77148 -18.77070 -18.76997 -18.76995 -18.76871
 Alpha  occ. eigenvalues --  -18.76445 -18.74876 -10.03382 -10.02851 -10.02686
 Alpha  occ. eigenvalues --  -10.02658 -10.02605 -10.02532 -10.02522 -10.02407
 Alpha  occ. eigenvalues --   -9.97061  -9.96429  -9.96422  -9.96404  -9.96381
 Alpha  occ. eigenvalues --   -9.96361  -9.96172  -9.94506  -9.93700  -9.93590
 Alpha  occ. eigenvalues --   -9.93540  -9.93480  -9.93363  -9.93337  -9.93334
 Alpha  occ. eigenvalues --   -9.93313  -9.92899  -9.92838  -9.92793  -9.92740
 Alpha  occ. eigenvalues --   -9.92721  -9.92661  -9.92635  -9.92601  -9.92597
 Alpha  occ. eigenvalues --   -9.92577  -9.92551  -9.92539  -9.92430  -9.92397
 Alpha  occ. eigenvalues --   -9.92388  -9.92358  -1.02906  -1.02775  -1.02641
 Alpha  occ. eigenvalues --   -1.02593  -1.02165  -1.02119  -1.02083  -1.01356
 Alpha  occ. eigenvalues --   -0.94650  -0.94283  -0.94001  -0.93949  -0.93701
 Alpha  occ. eigenvalues --   -0.93676  -0.93649  -0.92711  -0.91390  -0.80842
 Alpha  occ. eigenvalues --   -0.80745  -0.80565  -0.80493  -0.74225  -0.73857
 Alpha  occ. eigenvalues --   -0.73335  -0.72839  -0.71383  -0.70489  -0.69940
 Alpha  occ. eigenvalues --   -0.69708  -0.69513  -0.69478  -0.69170  -0.68416
 Alpha  occ. eigenvalues --   -0.65280  -0.64485  -0.63241  -0.61418  -0.61076
 Alpha  occ. eigenvalues --   -0.59460  -0.58247  -0.57655  -0.56813  -0.56687
 Alpha  occ. eigenvalues --   -0.56570  -0.56500  -0.55145  -0.53400  -0.53064
 Alpha  occ. eigenvalues --   -0.52481  -0.51826  -0.51501  -0.51282  -0.51210
 Alpha  occ. eigenvalues --   -0.50227  -0.50059  -0.48956  -0.48765  -0.47365
 Alpha  occ. eigenvalues --   -0.47224  -0.46216  -0.45691  -0.45476  -0.45258
 Alpha  occ. eigenvalues --   -0.45155  -0.44582  -0.44393  -0.44217  -0.44015
 Alpha  occ. eigenvalues --   -0.43616  -0.43362  -0.42887  -0.42671  -0.42047
 Alpha  occ. eigenvalues --   -0.41715  -0.41381  -0.40949  -0.40855  -0.40793
 Alpha  occ. eigenvalues --   -0.40730  -0.40552  -0.40505  -0.40491  -0.40407
 Alpha  occ. eigenvalues --   -0.40311  -0.40252  -0.40060  -0.39961  -0.39467
 Alpha  occ. eigenvalues --   -0.39278  -0.39127  -0.38959  -0.38826  -0.38212
 Alpha  occ. eigenvalues --   -0.37881  -0.37639  -0.37518  -0.37282  -0.37154
 Alpha  occ. eigenvalues --   -0.36987  -0.36688  -0.35796  -0.35402  -0.34979
 Alpha  occ. eigenvalues --   -0.34208  -0.34016  -0.33860  -0.33721  -0.33562
 Alpha  occ. eigenvalues --   -0.33408  -0.33230  -0.33090  -0.32655  -0.32448
 Alpha  occ. eigenvalues --   -0.32331  -0.31877  -0.31780  -0.31714  -0.31269
 Alpha  occ. eigenvalues --   -0.31044  -0.30922  -0.30823  -0.30729  -0.29206
 Alpha  occ. eigenvalues --   -0.27985  -0.27943  -0.27564  -0.27220  -0.26299
 Alpha  occ. eigenvalues --   -0.25835  -0.25636  -0.25583  -0.25252  -0.25079
 Alpha  occ. eigenvalues --   -0.24936  -0.24828  -0.24739  -0.24705  -0.24562
 Alpha  occ. eigenvalues --   -0.24473  -0.23852  -0.23769  -0.23631  -0.23473
 Alpha  occ. eigenvalues --   -0.23291  -0.23172  -0.23143  -0.22941  -0.20171
 Alpha virt. eigenvalues --   -0.10462  -0.10252  -0.10115  -0.09961  -0.05431
 Alpha virt. eigenvalues --   -0.05325  -0.05178  -0.05107  -0.03395  -0.03131
 Alpha virt. eigenvalues --   -0.02827  -0.02733   0.03212   0.03351   0.03431
 Alpha virt. eigenvalues --    0.03520   0.04108   0.04280   0.04740   0.04985
 Alpha virt. eigenvalues --    0.06014   0.06574   0.07109   0.07250   0.07516
 Alpha virt. eigenvalues --    0.07745   0.08295   0.08632   0.08696   0.09411
 Alpha virt. eigenvalues --    0.09516   0.09837   0.10202   0.10459   0.10656
 Alpha virt. eigenvalues --    0.10740   0.10973   0.11285   0.11492   0.11686
 Alpha virt. eigenvalues --    0.11988   0.12169   0.12264   0.12382   0.12643
 Alpha virt. eigenvalues --    0.12928   0.13079   0.13467   0.13568   0.13701
[...]
 251,-0.00000173,0.00001386,-0.00000721,0.00000282,-0.00028185,0.000035
 26,-0.00030268,0.00031331,-0.00072144,-0.00063997,0.00025838,0.0001632
 4,-0.00035638,-0.01676461,0.02769283,-0.02894255,-0.00673542,-0.002433
 14,0.00405933,0.00024735,0.00045218,-0.00166619,-0.00045405,-0.0002712
 6,0.00006218,-0.00004162,0.00012965,-0.00008829,-0.00007794,0.00001232
 ,-0.00007340,0.00000866,-0.00000798,0.00010023,0.00002372,0.00013036,-
 0.00015725,-0.00005302,-0.00003031,0.00001180,-0.00002518,-0.00000597,
 -0.00000821,0.00022768,0.00004042,0.00004128,-0.00010088,-0.00005394,0
 .00002699,0.00001398,0.00000848,-0.00000679,-0.00008804,-0.00000042,-0
 .00004021,-0.00005323,-0.00000120,-0.00001243,0.00003774,-0.00001893,-
 0.00000788,0.00318219,0.00048732,0.00018045,0.05807423,0.01771662,-0.2
 2806655,0.12080012,0.00030616,-0.02493597,0.01471722,0.00125346,0.0030
 3799,0.00066343,-0.00095054,-0.00022981,0.00065472,0.00002542,-0.00010
 839,0.00000335,-0.00003608,0.00001185,-0.00001554,0.00001086,0.0000028
 4,0.00000462,-0.00000317,-0.00000092,-0.00000159,0.00001506,0.00001521
 ,-0.00001384,-0.00006946,0.00001801,0.00000419,-0.00000759,-0.00003219
 ,-0.00003444,-0.00000564,-0.00000403,-0.00000504,-0.00002007,-0.000000
 54,-0.00001939,0.00001160,0.00000163,0.00001438,-0.00000941,-0.0000015
 6,-0.00000908,-0.00000559,-0.00000417,-0.00000612,0.00000833,0.0000108
 9,0.00001218,-0.00000562,-0.00001355,-0.00001095,0.00000129,0.00000069
 ,0.00000183,0.00000100,-0.00000108,0.00000035,-0.00000024,0.00000048,-
 0.00000015,0.00000149,-0.00000065,0.00000128,0.00000022,0.00000040,0.0
 0000020,-0.00000013,-0.00000006,-0.00000050,-0.00000058,0.00000040,-0.
 00000003,-0.00000027,-0.00000016,-0.00000015,-0.00000424,0.00000115,-0
 .00000372,0.00000238,-0.00000155,0.00000179,-0.00000134,0.00000037,-0.
 00000124,-0.00000107,0.00000038,-0.00000113,0.00000243,0.00000051,0.00
 000228,-0.00000275,-0.00000115,-0.00000232,0.00000045,-0.00000018,0.00
 000034,0.00000010,-0.00000028,0.00000009,-0.00000006,0.00000014,-0.000
 00005,0.00000038,-0.00000036,0.00000032,0.00000009,0.,0.00000006,-0.00
 000007,0.00000003,-0.00000006,-0.00000003,0.00000012,-0.00000002,-0.00
 000008,0.,-0.00000006,-0.00000126,0.00000063,-0.00000105,0.00000049,-0
 .00000062,0.00000046,-0.00000043,0.00000035,-0.00000026,-0.00000024,-0
 .00000019,-0.00000024,0.00000035,0.00000011,0.00000042,-0.00000024,0.0
 0000008,-0.00000039,0.00000008,0.00000002,-0.00000002,0.00000002,-0.00
 000005,0.00000005,0.,0.,0.00000003,0.00000006,-0.00000002,0.00000001,0
 .00000090,-0.00000001,0.00000078,0.00000002,0.,0.00000002,-0.00000013,
 0.00000001,-0.00000010,0.00000094,0.00000056,0.00000086,-0.00000003,-0
 .00000009,-0.00000009,0.00000015,0.00000011,0.,0.,-0.00000016,0.000000
 07,0.,0.00000012,0.00000008,0.00000207,0.00000065,0.00000226,0.0000000
 4,-0.00000004,0.00000019,-0.00000043,-0.00000021,-0.00000028,0.0000011
 1,0.00000677,0.00000290,0.00000091,-0.00000070,-0.00000013,0.00000037,
 -0.00000081,0.00000055,0.00000010,0.00000034,0.00000023,0.00000087,0.0
 0000059,-0.00000002,0.00001801,0.00000375,0.00000652,0.00000012,-0.000
 00117,-0.00000136,0.00001006,-0.00000763,-0.00000273,0.00005931,0.0002
 5533,-0.00048961,-0.00006367,-0.00290180,-0.00403332,0.00022250,0.0009
 7448,0.00000521,0.00062514,0.00526715,-0.00109351,-0.00123851,0.000558
 47,-0.00158418,0.00004293,0.00001195,-0.00017890,-0.00003824,0.0000107
 2,0.00000341,0.00000469,0.00001809,-0.00002310,0.00003635,0.00000093,0
 .00002064,-0.00001562,-0.00000928,-0.00000187,0.00006263,0.00000340,0.
 00001422,-0.00001458,-0.00001320,0.00005192,0.00000399,-0.00000027,0.0
 0000017,-0.00006040,-0.00001412,-0.00000673,0.00002758,0.00001659,-0.0
 0000851,-0.00000400,-0.00000378,0.00000169,0.00002142,0.00000135,0.000
 00973,-0.00000295,-0.00000089,-0.00000287,-0.00000132,0.00000130,-0.00
 001576,0.00030669,0.00039974,-0.00001153,-0.01774817,0.24393027,-0.005
 80920,0.11800303,-0.12756800,0.00086422,-0.01794280,0.01008938,0.00195
 561,0.00107946,0.00165070,-0.00049552,0.00022767,0.00026172,0.00002770
 ,-0.00013594,0.00002984,-0.00000639,0.00000219,-0.00001072,0.00000442,
 -0.00000095,0.00000685,0.00000367,-0.00000115,0.00000558,0.00001737,0.
 00000934,-0.00000213,-0.00002398,-0.00000970,0.00001131,-0.00001216,0.
 00000162,-0.00001383,-0.00000199,-0.00000009,0.00000022,-0.00000460,0.
 00000284,0.00000196,0.00000112,-0.00000158,-0.00000327,0.00000050,0.00
 000123,0.00000190,0.00000106,0.00000106,0.00000231,-0.00000174,-0.0000
 0363,-0.00000385,0.00000111,0.00000487,0.00000371,-0.00000050,-0.00000
 012,-0.00000055,-0.00000034,0.00000028,-0.00000031,0.00000025,-0.00000
 025,0.00000009,-0.00000047,0.00000027,-0.00000035,-0.00000021,-0.00000
 003,-0.00000030,0.00000038,0.00000019,0.00000040,-0.00000004,-0.000000
 06,0.00000005,0.00000014,0.00000004,0.00000024,0.00000141,0.00000038,0
 .00000179,-0.00000068,0.00000008,-0.00000094,0.00000038,0.,0.00000069,
 0.00000054,-0.00000014,0.00000066,-0.00000120,-0.00000043,-0.00000130,
 0.00000140,0.00000087,0.00000133,-0.00000024,0.00000011,-0.00000016,-0
 .00000007,0.00000015,-0.00000010,0.00000007,-0.00000011,0.00000002,-0.
 00000020,0.00000019,-0.00000016,-0.00000005,0.00000004,-0.00000009,0.0
 0000013,-0.00000003,0.00000004,-0.00000004,-0.00000003,0.00000005,0.00
 000004,0.,0.00000009,0.00000077,-0.00000013,0.00000072,-0.00000028,0.0
 0000020,-0.00000036,0.00000023,-0.00000015,0.00000020,0.00000015,0.000
 00017,0.00000025,-0.00000021,-0.00000015,-0.00000041,0.00000012,-0.000
 00002,0.00000034,-0.00000001,-0.00000002,0.,-0.00000001,0.00000002,-0.
 00000002,-0.00000003,-0.00000003,-0.00000001,0.,0.00000003,0.,-0.00000
 057,-0.00000009,-0.00000059,-0.00000003,0.,0.00000001,0.00000004,0.,0.
 00000009,-0.00000040,-0.00000050,-0.00000055,-0.00000003,0.00000002,0.
 ,-0.00000012,0.,0.00000003,0.00000007,0.,-0.00000002,0.00000001,-0.000
 00003,0.,-0.00000077,-0.00000066,-0.00000127,-0.00000008,-0.00000001,-
 0.00000003,0.00000007,0.,0.00000017,0.00000036,-0.00000256,-0.00000121
 ,-0.00000022,0.00000007,-0.00000012,-0.00000009,-0.00000026,-0.0000004
 7,-0.00000029,0.00000029,0.00000048,0.00000068,0.00000033,0.00000004,0
 .00000526,-0.00000247,-0.00000203,0.00000103,0.00000270,0.,0.00000094,
 0.00000390,-0.00000389,0.00010279,0.00027570,-0.00004627,-0.00085901,-
 0.00299625,-0.00221525,0.00008341,0.00057665,0.00078661,-0.00704744,0.
 00887101,-0.00988619,-0.00099282,0.00068569,0.00079238,-0.00001692,0.0
 0045675,-0.00048463,-0.00026224,-0.00014319,0.00000576,0.00000523,0.00
 002739,-0.00005316,-0.00010391,-0.00000822,-0.00003024,-0.00002077,-0.
 00002438,-0.00000407,0.00001508,0.00005079,-0.00008332,0.00000967,0.00
 004337,0.00001236,-0.00002361,-0.00000169,-0.00000052,0.00022474,0.000
 04379,0.00005640,-0.00010181,-0.00005503,0.00001853,0.00001357,0.00001
 187,-0.00000450,-0.00009180,0.00000056,-0.00005137,-0.00002823,0.00000
 238,-0.00000625,0.00003658,-0.00001890,0.00004564,-0.00129728,0.000073
 24,-0.00032828,0.01663959,-0.12784074,0.13662849,-0.15013539,0.0014434
 3,0.12459236,0.00537622,0.00012571,-0.00223685,-0.00014386,0.00082637,
 0.00147666,0.00057519,0.00025790,-0.00110182,-0.00004456,-0.00016290,0
 .00007940,-0.00001125,0.00001119,0.00000633,-0.00002087,-0.00000528,0.
 00000551,0.00002410,-0.00000629,0.00003155,0.00000335,0.00000224,0.000
 01693,0.00006233,0.00000256,-0.00002650,-0.00000100,0.00000677,0.00001
 209,0.00000579,-0.00000019,0.00000709,-0.00004187,0.00001348,-0.000060
 84,0.00001060,-0.00001146,0.00004392,-0.00001211,0.00000380,-0.0000137
 3,-0.00000271,-0.00000472,-0.00000686,0.00000725,0.00000826,0.00001265
 ,-0.00000468,-0.00000916,-0.00001010,0.00000125,0.00000079,0.00000154,
 0.00000049,-0.00000103,0.00000028,-0.00000009,0.00000016,0.00000012,0.
 00000132,-0.00000043,0.00000116,-0.00000019,0.00000025,0.00000010,0.,0
 .00000004,0.00000033,-0.00000032,0.00000059,-0.00000045,0.00000013,-0.
 00000008,-0.00000011,-0.00000308,0.00000212,-0.00000265,0.00000175,-0.
 00000202,0.00000137,-0.00000099,0.00000051,-0.00000097,-0.00000012,0.0
 0000045,-0.00000068,0.00000081,-0.00000018,0.00000111,-0.00000099,0.00
 000012,-0.00000098,0.00000021,-0.00000007,0.00000012,-0.00000003,-0.00
 000009,0.00000001,0.,0.,0.00000003,0.00000019,-0.00000014,0.00000015,-
 0.00000004,0.00000004,0.,0.00000006,0.,0.00000010,0.,0.00000009,-0.000
 00006,0.00000002,-0.00000002,-0.00000001,-0.00000028,0.00000061,-0.000
 00032,0.00000010,-0.00000051,0.00000018,-0.00000012,0.00000023,-0.0000
 0012,0.00000009,0.00000006,-0.00000003,-0.00000004,-0.00000013,0.00000
 010,-0.00000003,0.00000008,-0.00000014,-0.00000004,0.00000001,0.,0.000
 00002,-0.00000003,0.00000003,0.00000001,-0.00000004,0.,0.00000002,-0.0
 0000002,0.00000002,0.00000015,-0.00000018,0.00000021,0.00000001,0.0000
 0001,-0.00000002,-0.00000003,0.,-0.00000007,0.00000031,-0.00000022,0.0
 0000050,0.,0.00000003,-0.00000009,0.,-0.00000002,-0.00000002,0.0000001
 2,-0.00000008,0.00000007,0.00000001,0.00000002,0.00000008,0.00000119,-
 0.00000024,0.00000152,0.00000013,0.00000005,0.,-0.00000016,-0.00000007
 ,-0.00000048,0.00000085,0.00000367,0.00000383,-0.00000038,-0.00000174,
 -0.00000054,0.00000021,0.,0.00000044,0.00000143,-0.00000074,0.00000314
 ,0.00000172,0.00000126,-0.00000003,0.00002099,-0.00000219,0.00001635,0
 .00000066,0.,-0.00000053,-0.00002294,-0.00001328,-0.00000191,-0.000915
 52,-0.00060003,0.00054876,-0.00001461,-0.00006883,0.00002085,0.0001723
 9,-0.00144446,-0.00096581,-0.03593332,0.00163955,0.01140357,-0.0013776
 4,-0.00532470,0.00740371,-0.00009653,-0.00009754,-0.00033929,0.0000941
 6,-0.00011020,0.00009522,-0.00011454,0.00003220,-0.00001913,-0.0000524
 6,0.00004272,-0.00007344,0.00014681,0.00000098,-0.00009546,-0.00011187
 ,-0.00007799,0.00010657,0.00017175,0.00024474,-0.00005540,0.00000157,-
 0.00000351,0.00000421,0.00011396,0.00004360,0.00002724,-0.00004424,-0.
 00002500,0.00000660,0.00000710,0.00000692,-0.00000291,-0.00005511,-0.0
 0000044,-0.00004078,-0.00000882,0.00000439,-0.00000107,-0.00001830,0.0
 0001882,-0.00005342,0.00321408,0.00151795,-0.00151390,0.00482416,-0.00
 049301,-0.00281332,0.17434607,-0.00251861,-0.04753868,0.00331521,0.019
 05081,-0.00231265,-0.02216176,-0.00160448,0.00062253,0.00163776,0.0011
 2208,0.00103478,-0.00249424,-0.00009291,-0.00028637,0.00023806,0.00000
 867,-0.00000513,0.00000507,-0.00003576,-0.00000539,-0.00000944,0.00001
 931,-0.00001461,0.00005155,0.00002230,0.00001760,0.00003797,0.00007359
 ,0.00000434,-0.00000929,-0.00000144,-0.00001789,0.00000417,0.00000710,
 -0.00000182,0.00000891,-0.00005194,0.00001171,-0.00005592,0.00001379,-
 0.00001084,0.00004082,-0.00001274,0.00000382,-0.00001235,-0.00000263,-
 0.00000426,-0.00000614,0.00000714,0.00000703,0.00001127,-0.00000482,-0
 .00000735,-0.00000894,0.00000112,0.00000073,0.00000143,0.00000040,-0.0
 0000094,0.00000012,0.00000003,0.00000006,0.00000014,0.00000123,-0.0000
 0036,0.00000112,-0.00000024,0.00000028,-0.00000009,0.00000027,0.000000
 17,0.00000045,-0.00000049,0.00000055,-0.00000033,0.00000012,-0.0000001
 0,0.00000005,-0.00000290,0.00000248,-0.00000208,0.00000175,-0.00000217
 ,0.00000103,-0.00000098,0.00000056,-0.00000070,-0.00000007,0.00000038,
 -0.00000046,0.00000061,-0.00000029,0.00000072,-0.00000072,0.00000035,-
 0.00000062,0.00000015,-0.00000004,0.00000010,-0.00000004,-0.00000005,-
 0.00000003,0.00000003,-0.00000003,0.00000002,0.00000014,-0.00000010,0.
 00000012,-0.00000004,0.00000005,-0.00000005,0.00000011,0.,0.00000008,-
 0.00000004,0.00000008,-0.00000002,0.00000001,-0.00000002,0.00000003,-0
 .00000012,0.00000061,-0.00000011,0.00000006,-0.00000048,0.00000005,-0.
 00000009,0.00000020,-0.00000005,0.00000009,0.00000010,0.00000006,-0.00
 000005,-0.00000017,-0.00000006,-0.00000002,0.00000008,-0.00000001,-0.0
 0000001,0.,-0.00000001,0.00000002,-0.00000002,0.00000003,0.,-0.0000000
 5,0.,0.00000003,0.,0.00000002,0.00000003,-0.00000021,0.00000002,0.,0.0
 0000002,0.,-0.00000003,0.,-0.00000003,0.00000027,-0.00000037,0.0000003
 1,-0.00000003,0.00000001,-0.00000011,-0.00000003,0.00000002,0.,0.00000
 015,-0.00000013,0.00000007,0.00000002,0.00000003,0.00000009,0.00000107
 ,-0.00000053,0.00000106,0.00000007,0.00000004,0.00000001,-0.00000018,-
 0.00000009,-0.00000041,0.00000131,0.00000263,0.00000345,-0.00000043,-0
 .00000150,-0.00000051,0.00000024,-0.00000034,0.00000014,0.00000115,-0.
 00000052,0.00000307,0.00000228,0.00000148,0.00000016,0.00002836,-0.000
 00285,0.00001249,0.00000201,0.00000324,-0.00000015,-0.00004302,0.00000
 787,-0.00000462,-0.00017152,-0.00039765,0.00182701,0.00045114,0.001120
 32,0.00028675,-0.00068420,-0.00415063,-0.00341889,-0.00206221,-0.00001
 638,0.00077186,0.00265553,0.00197352,-0.00080926,-0.00054360,-0.000084
 43,0.00019841,-0.00005047,-0.00004499,-0.00000727,0.00002236,0.0000122
 8,0.00001418,-0.00006476,-0.00003732,0.00001572,-0.00009216,-0.0000178
 9,-0.00002932,-0.00006231,0.00002030,-0.00009358,0.00002498,-0.0000029
 8,-0.00000438,-0.00002248,0.00000095,-0.00000022,0.00012574,0.00001504
 ,0.00003221,-0.00005965,-0.00002869,0.00000764,0.00000715,0.00000739,-
 0.00000262,-0.00005308,0.00000209,-0.00003014,-0.00000460,0.00000318,-
 0.00000395,0.00007048,-0.00001725,0.00006028,-0.00109142,-0.00116925,0
 .00032597,-0.01659244,0.00179127,0.01872973,0.00220446,0.04951364,0.13
 296715,0.00067640,-0.20458369,0.01259732,-0.00116122,-0.01297448,-0.00
 160104,0.00011152,0.00096823,0.00051586,0.00032134,-0.00268927,-0.0001
 0803,-0.00017831,0.00010494,-0.00000114,0.00001631,0.00003396,-0.00003
 958,-0.00000518,-0.00001487,0.00003763,-0.00001245,0.00006377,0.000010
 37,0.00000911,0.00002654,0.00007920,0.00003150,-0.00003180,0.00000839,
 -0.00000937,0.00000440,0.00000828,-0.00000395,0.00000913,-0.00008988,0
 .00001999,-0.00012176,0.00002723,-0.00001809,0.00008987,-0.00002893,0.
 00000516,-0.00003202,-0.00000974,-0.00001178,-0.00001834,0.00002042,0.
 00002455,0.00003401,-0.00001376,-0.00002855,-0.00002871,0.00000363,0.0
 0000192,0.00000454,0.00000178,-0.00000279,0.00000094,-0.00000049,0.000
 00076,0.00000007,0.00000386,-0.00000145,0.00000334,-0.00000005,0.00000
 073,0.00000051,-0.00000029,-0.00000007,0.00000002,-0.00000100,0.000001
 39,-0.00000087,-0.00000005,-0.00000030,-0.00000046,-0.00000981,0.00000
 468,-0.00000880,0.00000549,-0.00000505,0.00000448,-0.00000309,0.000001
 23,-0.00000318,-0.00000136,0.00000122,-0.00000253,0.00000407,0.0000002
 9,0.00000459,-0.00000477,-0.00000115,-0.00000440,0.00000088,-0.0000003
 4,0.00000059,0.00000006,-0.00000046,0.00000016,-0.00000009,0.00000016,
 0.,0.00000076,-0.00000066,0.00000061,0.00000002,0.00000004,0.00000009,
 -0.00000002,0.00000005,0.00000011,0.,0.00000027,-0.00000016,-0.0000000
 4,-0.00000004,-0.00000013,-0.00000194,0.00000170,-0.00000185,0.0000007
 3,-0.00000155,0.00000091,-0.00000069,0.00000078,-0.00000055,-0.0000000
 9,-0.00000013,-0.00000040,0.00000031,-0.00000007,0.00000078,-0.0000003
 0,0.00000023,-0.00000078,-0.00000001,0.00000005,-0.00000001,0.00000007
 ,-0.00000010,0.00000009,0.00000005,-0.00000006,0.00000002,0.00000008,-
 0.00000008,0.00000005,0.00000130,-0.00000029,0.00000136,0.00000005,0.0
 0000003,-0.00000003,-0.00000017,0.00000001,-0.00000025,0.00000151,0.00
 000029,0.00000193,0.,-0.00000002,-0.00000023,0.00000019,0.00000003,-0.
 00000005,0.00000018,-0.00000027,0.00000020,0.00000002,0.00000015,0.000
 00020,0.00000423,0.00000038,0.00000530,0.00000031,0.00000010,0.0000001
 6,-0.00000066,-0.00000026,-0.00000122,0.00000254,0.00001250,0.00001004
 ,-0.00000004,-0.00000351,-0.00000085,0.00000076,-0.00000035,0.00000130
 ,0.00000275,-0.00000136,0.00000532,0.00000331,0.00000238,-0.00000010,0
 .00004904,0.00000076,0.00003337,0.00000194,-0.00000360,-0.00000107,-0.
 00004450,-0.00001236,0.00000101,0.00020649,0.00048516,0.00177909,-0.00
 035714,0.00075425,0.00068336,-0.00111978,-0.00244201,-0.00082552,-0.01
 373697,0.00138353,0.01155105,-0.00215990,-0.00056401,0.00250819,0.0003
 4241,-0.00040997,-0.00041870,0.00002310,-0.00001299,0.00002751,-0.0000
 4474,-0.00001080,-0.00000163,-0.00003433,0.00003367,-0.00005380,0.0001
 1978,0.00000911,-0.00001396,-0.00002575,0.00004284,0.00007980,0.000057
 90,0.00007362,-0.00000058,0.00000980,-0.00001153,-0.00000420,0.0000171
 1,0.00002389,0.00001261,-0.00000158,-0.00000192,0.00000419,0.00000093,
 -0.00000281,-0.00000189,-0.00000579,0.00000023,-0.00001193,-0.00000247
 ,0.00000292,0.00000222,-0.00004124,0.00001131,-0.00003796,-0.00015928,
 0.00091402,-0.00172771,0.00900452,-0.00158246,-0.00960831,-0.13649328,
 0.00152116,0.21516411\\-0.00000131,-0.00000138,-0.00000169,-0.00000015
 ,0.00000111,0.00000032,0.00000142,-0.00000034,0.00000139,-0.00000021,-
 0.00000224,-0.00000040,-0.00000010,0.00000137,-0.00000019,0.00000012,0
 .00000058,0.00000027,0.,0.,0.00000044,0.00000005,0.00000031,-0.0000005
 3,0.00000002,-0.00000008,-0.00000008,-0.00000014,-0.00000090,0.0000002
 5,-0.00000022,0.00000017,0.00000004,0.00000008,-0.00000003,-0.00000011
 ,-0.00000008,-0.00000179,0.00000120,0.00000025,0.00000327,-0.00000034,
 -0.00000017,-0.00000218,0.00000021,-0.00000191,-0.00000038,0.00000134,
 0.00000297,0.00000173,-0.00000344,-0.00000613,-0.00000418,0.00000588,0
 .00000151,0.00000073,-0.00000125,0.00000006,0.00000025,-0.00000016,-0.
 00000010,-0.00000034,0.00000068,-0.00000088,-0.00000040,0.00000120,-0.
 00000035,-0.00000007,-0.00000013,0.00000063,-0.00000004,-0.00000012,0.
 00000007,0.00000015,-0.00000006,0.00000018,0.00000004,-0.00000001,0.00
 000386,0.00000170,-0.00000439,-0.00000294,-0.00000116,0.00000180,0.000
 00057,0.00000095,-0.00000186,-0.00000061,-0.00000046,0.00000214,0.0000
 0064,-0.00000089,0.00000055,0.00000403,-0.00000158,-0.00000491,-0.0000
 0150,0.00000097,0.00000128,-0.00000033,0.00000015,-0.00000025,0.000000
 55,-0.00000071,0.00000018,0.00000003,0.00000003,0.00000029,-0.00000044
 ,0.00000029,0.,-0.00000008,-0.00000086,0.00000058,-0.00000022,0.000000
 10,0.,0.00000008,0.00000028,0.00000002,-0.00000129,-0.00000218,-0.0000
 0265,-0.00000051,0.00000123,0.00000042,0.00000093,-0.00000136,-0.00000
 073,0.00000220,0.00000113,0.00000311,-0.00000084,-0.00000081,-0.000002
 08,0.00000059,0.00000200,0.00000056,-0.00000101,-0.00000036,-0.0000007
 1,-0.00000110,-0.00000053,-0.00000041,-0.00000040,0.00000083,-0.000000
 25,-0.00000006,0.00000020,0.00000011,0.00000106,0.00000042,0.00000223,
 -0.00000005,0.00000002,-0.00000003,0.00000012,0.00000020,-0.00000007,-
 0.00000103,0.00000152,0.00000277,0.00000024,0.00000069,-0.00000145,0.0
 0000001,0.00000006,-0.00000082,-0.00000027,-0.00000047,0.00000056,-0.0
 0000028,-0.00000043,0.00000126,-0.00000130,-0.00000009,0.00000154,0.00
 000012,0.,-0.00000006,0.00000008,0.00000003,-0.00000028,0.00000176,0.0
 0000180,-0.00000222,0.00000009,-0.00000036,-0.00000114,0.00000072,0.00
 000067,-0.00000021,0.00000032,-0.00000013,-0.00000005,-0.00000016,0.00
 000061,-0.00000037,0.00000013,-0.00000010,-0.00000002,-0.00000007,-0.0
 0000011,0.00000005,0.,-0.00000021,-0.00000025,0.00000087,0.00000059,-0
 .00000027,-0.00000023,-0.00000077,-0.00000067,-0.00000011,-0.00000061,
 -0.00000042,-0.00000015,-0.00000037,-0.00000209,-0.00000183,0.00000410
 ,0.00000440,0.00000192,-0.00000155,-0.00000145,0.00000044,-0.00000116,
 0.00000128,0.00000155,-0.00000028,0.00000032,-0.00000057,-0.00000492,-
 0.00000545,0.00000133,-0.00000070,0.00000084,0.00000005,0.00000124,-0.
 00000008,-0.00000032,-0.00000045,0.00000021,-0.00000008,-0.00000040,0.
 00000035,-0.00000689,0.00001814,0.00001512,0.00000188,-0.00000526,-0.0
 0000473,0.00000058,0.00000027,0.00000001,0.00000238,-0.00000650,-0.000
 00662,-0.00000012,-0.00000054,-0.00000015,-0.00000062,0.00000016,0.000
 00057,0.00000007,-0.00000129,-0.00000163,0.00000026,0.00000076,0.00000
 079,0.00000035,0.00000112,0.00000070\\\@


 Discoveries are often made by not following instructions,
 by going off the main road, by trying the untried.
 -- Frank Tyger
 Job cpu time:       0 days  4 hours  7 minutes 29.8 seconds.
 Elapsed time:       0 days  0 hours 15 minutes 28.8 seconds.
 File lengths (MBytes):  RWF=   8207 Int=      0 D2E=      0 Chk=     72 Scr=      1
 Normal termination of Gaussian 16 at Tue Mar 22 11:48:13 2022.
