 Entering Gaussian System, Link 0=/usr/local/g16.b01/g16/g16
 Initial command:
 /usr/local/g16.b01/g16/l1.exe "/scratch/webmo-2626/90/Gau-31559.inp" -scrdir="/scratch/webmo-2626/90/"
 Entering Link 1 = /usr/local/g16.b01/g16/l1.exe PID=     31561.
  
 Copyright (c) 1988-2017, Gaussian, Inc.  All Rights Reserved.
  
 This is part of the Gaussian(R) 16 program.  It is based on
 the Gaussian(R) 09 system (copyright 2009, Gaussian, Inc.),
 the Gaussian(R) 03 system (copyright 2003, Gaussian, Inc.),
 the Gaussian(R) 98 system (copyright 1998, Gaussian, Inc.),
 the Gaussian(R) 94 system (copyright 1995, Gaussian, Inc.),
 the Gaussian 92(TM) system (copyright 1992, Gaussian, Inc.),
 the Gaussian 90(TM) system (copyright 1990, Gaussian, Inc.),
 the Gaussian 88(TM) system (copyright 1988, Gaussian, Inc.),
 the Gaussian 86(TM) system (copyright 1986, Carnegie Mellon
 University), and the Gaussian 82(TM) system (copyright 1983,
 Carnegie Mellon University). Gaussian is a federally registered
 trademark of Gaussian, Inc.
  
 This software contains proprietary and confidential information,
 including trade secrets, belonging to Gaussian, Inc.
  
 This software is provided under written license and may be
 used, copied, transmitted, or stored only in accord with that
 written license.
  
 The following legend is applicable only to US Government
 contracts under FAR:
  
                    RESTRICTED RIGHTS LEGEND
  
 Use, reproduction and disclosure by the US Government is
 subject to restrictions as set forth in subparagraphs (a)
 and (c) of the Commercial Computer Software - Restricted
 Rights clause in FAR 52.227-19.
  
 Gaussian, Inc.
 340 Quinnipiac St., Bldg. 40, Wallingford CT 06492
  
  
 ---------------------------------------------------------------
 Warning -- This program may not be used in any manner that
 competes with the business of Gaussian, Inc. or will provide
 assistance to any competitor of Gaussian, Inc.  The licensee
 of this program is prohibited from giving any competitor of
 Gaussian, Inc. access to this program.  By using this program,
 the user acknowledges that Gaussian, Inc. is engaged in the
 business of creating and licensing software in the field of
 computational chemistry and represents and warrants to the
 licensee that it is not a competitor of Gaussian, Inc. and that
 it will not use this program in any manner prohibited above.
 ---------------------------------------------------------------
  

 Cite this work as:
 Gaussian 16, Revision B.01,
 M. J. Frisch, G. W. Trucks, H. B. Schlegel, G. E. Scuseria, 
 M. A. Robb, J. R. Cheeseman, G. Scalmani, V. Barone, 
 G. A. Petersson, H. Nakatsuji, X. Li, M. Caricato, A. V. Marenich, 
 J. Bloino, B. G. Janesko, R. Gomperts, B. Mennucci, H. P. Hratchian, 
 J. V. Ortiz, A. F. Izmaylov, J. L. Sonnenberg, D. Williams-Young, 
 F. Ding, F. Lipparini, F. Egidi, J. Goings, B. Peng, A. Petrone, 
 T. Henderson, D. Ranasinghe, V. G. Zakrzewski, J. Gao, N. Rega, 
 G. Zheng, W. Liang, M. Hada, M. Ehara, K. Toyota, R. Fukuda, 
 J. Hasegawa, M. Ishida, T. Nakajima, Y. Honda, O. Kitao, H. Nakai, 
 T. Vreven, K. Throssell, J. A. Montgomery, Jr., J. E. Peralta, 
 F. Ogliaro, M. J. Bearpark, J. J. Heyd, E. N. Brothers, K. N. Kudin, 
 V. N. Staroverov, T. A. Keith, R. Kobayashi, J. Normand, 
 K. Raghavachari, A. P. Rendell, J. C. Burant, S. S. Iyengar, 
 J. Tomasi, M. Cossi, J. M. Millam, M. Klene, C. Adamo, R. Cammi, 
 J. W. Ochterski, R. L. Martin, K. Morokuma, O. Farkas, 
 J. B. Foresman, and D. J. Fox, Gaussian, Inc., Wallingford CT, 2016.
 
 ******************************************
 Gaussian 16:  EM64L-G16RevB.01 20-Dec-2017
                22-Mar-2022 
 ******************************************
 %NProcShared=16
 Will use up to   16 processors via shared memory.
 %Mem=32GB
 ----------------------------------------------------------------------
 #N PBE1PBE/6-311+G(2d,p) NMR SCRF=(PCM,Solvent=chloroform) Geom=Connec
 tivity
 ----------------------------------------------------------------------
 1/38=1,57=2,172=1/1;
 2/12=2,17=6,18=5,40=1/2;
 3/5=4,6=6,7=112,11=2,25=1,30=1,70=2201,72=7,74=-13/1,2,3,8;
 4//1;
 5/5=2,38=5,53=7/2;
 8/6=1,10=90,11=11/1;
 10/13=100,45=16/2;
 6/7=2,8=2,9=2,10=2,28=1/1;
 99/9=1/99;
 -------------------------
 acetal of hydrobenzoin C2
 -------------------------
 Symbolic Z-matrix:
 Charge =  0 Multiplicity = 1
 C
 C                    1    B1
 C                    2    B2       1    A1
 C                    3    B3       2    A2       1    D1       0
 C                    4    B4       3    A3       2    D2       0
 C                    5    B5       4    A4       3    D3       0
 C                    6    B6       5    A5       4    D4       0
 H                    7    B7       6    A6       5    D5       0
 H                    6    B8       5    A7       4    D6       0
 H                    5    B9       4    A8       3    D7       0
 H                    4    B10      3    A9       2    D8       0
 H                    3    B11      2    A10      7    D9       0
 O                    1    B12      2    A11      3    D10      0
 C                    13   B13      1    A12      2    D11      0
 O                    14   B14      13   A13      1    D12      0
 C                    1    B15      2    A14      3    D13      0
 C                    16   B16      1    A15      2    D14      0
 C                    17   B17      16   A16      1    D15      0
 C                    18   B18      17   A17      16   D16      0
 C                    19   B19      18   A18      17   D17      0
 C                    20   B20      19   A19      18   D18      0
 C                    21   B21      20   A20      19   D19      0
 H                    22   B22      21   A21      20   D20      0
 H                    21   B23      20   A22      19   D21      0
 H                    20   B24      19   A23      18   D22      0
 H                    19   B25      18   A24      17   D23      0
 H                    18   B26      17   A25      16   D24      0
 H                    16   B27      1    A26      2    D25      0
 C                    14   B28      15   A27      16   D26      0
 H                    29   B29      14   A28      15   D27      0
 H                    29   B30      14   A29      15   D28      0
 H                    29   B31      14   A30      15   D29      0
 C                    14   B32      15   A31      16   D30      0
 H                    33   B33      14   A32      15   D31      0
 H                    33   B34      14   A33      15   D32      0
 H                    33   B35      14   A34      15   D33      0
 H                    1    B36      2    A35      3    D34      0
       Variables:
  B1                    1.50593                  
  B2                    1.40228                  
  B3                    1.39652                  
  B4                    1.39838                  
  B5                    1.39738                  
  B6                    1.3971                   
  B7                    1.0934                   
  B8                    1.09234                  
  B9                    1.09229                  
  B10                   1.09255                  
  B11                   1.09179                  
  B12                   1.4304                   
  B13                   1.44413                  
  B14                   1.44413                  
  B15                   1.55206                  
  B16                   1.50593                  
  B17                   1.40164                  
  B18                   1.3971                   
  B19                   1.39738                  
  B20                   1.39838                  
  B21                   1.39652                  
  B22                   1.09179                  
  B23                   1.09255                  
  B24                   1.09229                  
  B25                   1.09234                  
  B26                   1.0934                   
  B27                   1.10817                  
  B28                   1.52454                  
  B29                   1.09949                  
  B30                   1.09909                  
  B31                   1.09868                  
  B32                   1.52454                  
  B33                   1.09909                  
  B34                   1.09868                  
  B35                   1.09949                  
  B36                   1.10817                  
  A1                  121.18957                  
  A2                  120.37142                  
  A3                  120.27446                  
  A4                  119.64481                  
  A5                  120.06678                  
  A6                  119.91418                  
  A7                  120.14543                  
  A8                  120.17952                  
  A9                  119.73268                  
  A10                 119.13139                  
  A11                 111.19892                  
  A12                 107.89414                  
  A13                 106.35466                  
  A14                 115.23375                  
  A15                 115.23375                  
  A16                 119.71778                  
  A17                 120.58975                  
  A18                 120.06678                  
  A19                 119.64481                  
  A20                 120.27446                  
  A21                 120.48337                  
  A22                 119.99233                  
  A23                 120.17379                  
  A24                 119.78602                  
  A25                 119.49602                  
  A26                 108.17222                  
  A27                 110.71221                  
  A28                 110.14215                  
  A29                 110.22907                  
  A30                 110.05689                  
  A31                 107.88655                  
  A32                 110.22907                  
  A33                 110.05689                  
  A34                 110.14215                  
  A35                 109.72238                  
  D1                  177.36505                  
  D2                   -0.26337                  
  D3                    0.38629                  
  D4                   -0.00626                  
  D5                  179.5837                   
  D6                  179.50779                  
  D7                  179.88801                  
  D8                  179.46994                  
  D9                  178.41677                  
  D10                  33.70286                  
  D11                -154.36116                  
  D12                  13.01068                  
  D13                 -81.12525                  
  D14                 -81.42718                  
  D15                  96.46159                  
  D16                -177.01918                  
  D17                  -0.50073                  
  D18                  -0.00626                  
  D19                   0.38629                  
  D20                -178.89943                  
  D21                -179.34633                  
  D22                -179.50801                  
  D23                 179.98346                  
  D24                   2.89674                  
  D25                  41.75774                  
  D26                -103.93599                  
  D27                 174.20081                  
  D28                 -65.70605                  
  D29                  54.3951                   
  D30                 131.82783                  
  D31                 178.29487                  
  D32                 -61.60399                  
  D33                  58.20173                  
  D34                 156.51653                  
 
                          Input orientation:                          
 ---------------------------------------------------------------------
 Center     Atomic      Atomic             Coordinates (Angstroms)
 Number     Number       Type             X           Y           Z
 ---------------------------------------------------------------------
      1          6           0        0.000000    0.000000    0.000000
      2          6           0        0.000000    0.000000    1.505932
      3          6           0        1.199588    0.000000    2.232130
      4          6           0        1.180307    0.055390    3.627414
      5          6           0       -0.036495    0.116968    4.313761
      6          6           0       -1.235625    0.114669    3.596291
      7          6           0       -1.216209    0.051254    2.200762
      8          1           0       -2.156122    0.042727    1.642176
      9          1           0       -2.190968    0.154405    4.124438
     10          1           0       -0.049820    0.158398    5.405183
     11          1           0        2.120927    0.046064    4.183113
     12          1           0        2.146958   -0.066203    1.693509
     13          8           0        1.109459   -0.739997   -0.517241
     14          6           0        1.410866   -0.226253   -1.832817
     15          8           0        0.682959    1.014357   -1.961495
     16          6           0        0.216595    1.387149   -0.661663
     17          6           0       -1.011340    2.254274   -0.751668
     18          6           0       -1.247318    3.228503    0.228012
     19          6           0       -2.411212    4.000698    0.196951
     20          6           0       -3.348563    3.813540   -0.822376
     21          6           0       -3.114520    2.850583   -1.808991
     22          6           0       -1.954794    2.073400   -1.773214
     23          1           0       -1.759990    1.333042   -2.551627
     24          1           0       -3.838450    2.706890   -2.614554
     25          1           0       -4.255292    4.421820   -0.852886
     26          1           0       -2.581923    4.756141    0.967251
     27          1           0       -0.512326    3.381737    1.022891
     28          1           0        1.009299    1.918685   -0.098522
     29          6           0        2.913565    0.020163   -1.906303
     30          1           0        3.460422   -0.912096   -1.704501
     31          1           0        3.190508    0.384527   -2.905568
     32          1           0        3.209341    0.770207   -1.159952
     33          6           0        0.907656   -1.178472   -2.911836
     34          1           0        1.459403   -2.128028   -2.868129
     35          1           0       -0.162078   -1.381974   -2.765739
     36          1           0        1.048484   -0.731832   -3.906603
     37          1           0       -0.956762   -0.415684   -0.373966
 ---------------------------------------------------------------------
                    Distance matrix (angstroms):
                    1          2          3          4          5
     1  C    0.000000
     2  C    1.505932   0.000000
     3  C    2.534052   1.402275   0.000000
     4  C    3.815013   2.428349   1.396516   0.000000
     5  C    4.315501   2.810501   2.423793   1.398382   0.000000
     6  C    3.804370   2.430950   2.793626   2.416859   1.397384
     7  C    2.514985   1.401635   2.416545   2.789022   2.420911
     8  H    2.710614   2.160845   3.407443   3.882408   3.411114
     9  H    4.672812   3.417712   3.885941   3.409154   2.163099
    10  H    5.407733   3.902784   3.413850   2.164321   1.092289
    11  H    4.690298   3.415809   2.158083   1.092545   2.162537
    12  H    2.735285   2.156153   1.091790   2.165454   3.415661
    13  O    1.430396   2.423164   2.848642   4.220880   5.038471
    14  C    2.323995   3.631664   4.076717   5.472349   6.324008
    15  O    2.311453   3.676738   4.345379   5.692352   6.379793
    16  C    1.552061   2.582550   3.356262   4.593311   5.141231
    17  C    2.582550   3.346837   4.344308   5.367939   5.583635
    18  C    3.468576   3.689460   4.519632   5.245755   5.276465
    19  C    4.675288   4.851079   5.760679   6.342913   6.137652
    20  C    5.141231   5.583635   6.675235   7.378006   7.142432
    21  C    4.593311   5.367939   6.562622   7.470819   7.378006
    22  C    3.356262   4.344308   5.503808   6.562622   6.675235
    23  H    3.374220   4.619345   5.781041   6.961199   7.182118
    24  H    5.375579   6.248149   7.496628   8.436856   8.316497
    25  H    6.195758   6.574498   7.669781   8.287613   7.938781
    26  H    5.497525   5.438509   6.206499   6.582393   6.261011
    27  H    3.570005   3.454266   3.978575   4.551168   4.659931
    28  H    2.170195   2.697093   3.024815   4.169378   4.879356
    29  C    3.481847   4.486939   4.479370   5.798918   6.884869
    30  H    3.963806   4.807631   4.630373   5.879139   7.036113
    31  H    4.332382   5.457888   5.523366   6.843179   7.912260
    32  H    3.498368   4.242644   4.017281   5.248506   6.397164
    33  C    3.269775   4.661471   5.285302   6.660221   7.401273
    34  H    3.858046   5.078461   5.532508   6.858374   7.671849
    35  H    3.096035   4.492583   5.361221   6.688828   7.237536
    36  H    4.110529   5.561514   6.184049   7.576181   8.334989
    37  H    1.108168   2.149931   3.407987   4.560704   4.806807
                    6          7          8          9         10
     6  C    0.000000
     7  C    1.397104   0.000000
     8  H    2.161263   1.093402   0.000000
     9  H    1.092336   2.159010   2.485017   0.000000
    10  H    2.163362   3.411782   4.313943   2.494962   0.000000
    11  H    3.408153   3.881524   4.974890   4.313655   2.493635
    12  H    3.885249   3.403233   4.304765   4.977518   4.318889
    13  O    4.811551   3.663653   3.992463   5.765237   6.101323
    14  C    6.049410   4.821649   4.987117   6.971872   7.393930
    15  O    5.948057   4.675339   4.689445   6.785098   7.452353
    16  C    4.675288   3.468576   3.570005   5.497525   6.195758
    17  C    4.851079   3.689460   3.454266   5.438509   6.574498
    18  C    4.587091   3.740003   3.602076   5.051998   6.136989
    19  C    5.295163   4.587091   4.221290   5.501603   6.889494
    20  C    6.137652   5.276465   4.659931   6.261011   7.938781
    21  C    6.342913   5.245755   4.551168   6.582393   8.287613
    22  C    5.760679   4.519632   3.978575   6.206499   7.669781
    23  H    6.289379   4.952159   4.405657   6.792994   8.222851
    24  H    7.215879   6.092276   5.296012   7.392117   9.228473
    25  H    6.889494   6.136989   5.459698   6.873574   8.661766
    26  H    5.501603   5.051998   4.780492   5.594341   6.873574
    27  H    4.221290   3.602076   3.772873   4.780492   5.459698
    28  H    4.684635   3.704983   4.070521   5.584602   5.874615
    29  C    6.892260   5.824431   6.188210   7.902159   7.890411
    30  H    7.155802   6.168469   6.607382   8.188538   8.000960
    31  H    7.870048   6.753136   7.027465   8.856310   8.922973
    32  H    6.542882   5.603284   6.096667   7.580721   7.355096
    33  C    6.972918   5.671128   5.622908   7.803024   8.478018
    34  H    7.354018   6.132033   6.174710   8.211620   8.715112
    35  H    6.623283   5.275554   5.043382   7.345162   8.315607
    36  H    7.888418   6.560638   6.454332   8.705004   9.418500
    37  H    4.015218   2.629557   2.390279   4.699351   5.877982
                   11         12         13         14         15
    11  H    0.000000
    12  H    2.492271   0.000000
    13  O    4.871786   2.533341   0.000000
    14  C    6.063807   3.605887   1.444133   0.000000
    15  O    6.384478   4.082885   2.312040   1.444133   0.000000
    16  C    5.375579   3.374220   2.311453   2.323995   1.430396
    17  C    6.248149   4.619345   3.676738   3.631664   2.423164
    18  C    6.092276   4.952159   4.675339   4.821649   3.663653
    19  C    7.215879   6.289379   5.948057   6.049410   4.811551
    20  C    8.316497   7.182118   6.379793   6.324008   5.038471
    21  C    8.436856   6.961199   5.692352   5.472349   4.220880
    22  C    7.496628   5.781041   4.345379   4.076717   2.848642
    23  H    7.878741   5.936607   4.082885   3.605887   2.533341
    24  H    9.423506   7.878741   6.384478   6.063807   4.871786
    25  H    9.228473   8.222851   7.452353   7.393930   6.101323
    26  H    7.392117   6.792994   6.785098   6.971872   5.765237
    27  H    5.296012   4.405657   4.689445   4.987117   3.992463
    28  H    4.803627   2.906101   2.693316   2.787435   2.096420
    29  C    6.140842   3.681547   2.400445   1.524541   2.442759
    30  H    6.113618   3.739946   2.639362   2.165068   3.389920
    31  H    7.176905   4.737474   3.361462   2.165866   2.752410
    32  H    5.500671   3.157606   2.665201   2.163375   2.661707
    33  C    7.301358   4.897164   2.442759   1.524541   2.400445
    34  H    7.408394   5.052959   2.752410   2.165866   3.361462
    35  H    7.452379   5.191126   2.661707   2.163375   2.665201
    36  H    8.197486   5.745517   3.389920   2.165068   2.639362
    37  H    5.518365   3.745620   2.096420   2.787435   2.693316
                   16         17         18         19         20
    16  C    0.000000
    17  C    1.505932   0.000000
    18  C    2.514985   1.401635   0.000000
    19  C    3.804370   2.430950   1.397104   0.000000
    20  C    4.315501   2.810501   2.420911   1.397384   0.000000
    21  C    3.815013   2.428349   2.789022   2.416859   1.398382
    22  C    2.534052   1.402275   2.416545   2.793626   2.423793
    23  H    2.735285   2.156153   3.403233   3.885249   3.415661
    24  H    4.690298   3.415809   3.881524   3.408153   2.162537
    25  H    5.407733   3.902784   3.411782   2.163362   1.092289
    26  H    4.672812   3.417712   2.159010   1.092336   2.163099
    27  H    2.710614   2.160845   1.093402   2.161263   3.411114
    28  H    1.108168   2.149931   2.629557   4.015218   4.806807
    29  C    3.269775   4.661471   5.671128   6.972918   7.401273
    30  H    4.110529   5.561514   6.560638   7.888418   8.334989
    31  H    3.858046   5.078461   6.132033   7.354018   7.671849
    32  H    3.096035   4.492583   5.275554   6.623283   7.237536
    33  C    3.481847   4.486939   5.824431   6.892260   6.884869
    34  H    4.332382   5.457888   6.753136   7.870048   7.912260
    35  H    3.498368   4.242644   5.603284   6.542882   6.397164
    36  H    3.963806   4.807631   6.168469   7.155802   7.036113
    37  H    2.170195   2.697093   3.704983   4.684635   4.879356
                   21         22         23         24         25
    21  C    0.000000
    22  C    1.396516   0.000000
    23  H    2.165454   1.091790   0.000000
    24  H    1.092545   2.158083   2.492271   0.000000
    25  H    2.164321   3.413850   4.318889   2.493635   0.000000
    26  H    3.409154   3.885941   4.977518   4.313655   2.494962
    27  H    3.882408   3.407443   4.304765   4.974890   4.313943
    28  H    4.560704   3.407987   3.745619   5.518365   5.877982
    29  C    6.660221   5.285302   4.897164   7.301358   8.478018
    30  H    7.576181   6.184049   5.745517   8.197486   9.418500
    31  H    6.858374   5.532508   5.052959   7.408394   8.715112
    32  H    6.688828   5.361221   5.191126   7.452379   8.315607
    33  C    5.798918   4.479370   3.681547   6.140842   7.890411
    34  H    6.843179   5.523366   4.737474   7.176905   8.922973
    35  H    5.248506   4.017281   3.157606   5.500671   7.355096
    36  H    5.879139   4.630373   3.739946   6.113618   8.000960
    37  H    4.169378   3.024815   2.906101   4.803627   5.874615
                   26         27         28         29         30
    26  H    0.000000
    27  H    2.485017   0.000000
    28  H    4.699351   2.390279   0.000000
    29  C    7.803024   5.622908   3.240168   0.000000
    30  H    8.705004   6.454332   4.074370   1.099492   0.000000
    31  H    8.211620   6.174710   3.871798   1.099086   1.787916
    32  H    7.345162   5.043382   2.699226   1.098676   1.785978
    33  C    7.902159   6.188210   4.185386   2.543913   2.836410
    34  H    8.856310   7.027465   4.924348   2.766662   2.614689
    35  H    7.580721   6.096667   4.402332   3.487721   3.803882
    36  H    8.188538   6.607382   4.639856   2.836410   3.270962
    37  H    5.584602   4.070521   3.064400   4.185386   4.639856
                   31         32         33         34         35
    31  H    0.000000
    32  H    1.787814   0.000000
    33  C    2.766662   3.487721   0.000000
    34  H    3.051403   3.792086   1.099086   0.000000
    35  H    3.792086   4.310093   1.098676   1.787814   0.000000
    36  H    2.614689   3.803882   1.099492   1.787916   1.785978
    37  H    4.924348   4.402332   3.240168   3.871798   2.699226
                   36         37
    36  H    0.000000
    37  H    4.074370   0.000000
 Stoichiometry    C17H18O2
 Framework group  C2[C2(C),X(C16H18O2)]
 Deg. of freedom    53
 Full point group                 C2      NOp   2
 Largest Abelian subgroup         C2      NOp   2
 Largest concise Abelian subgroup C2      NOp   2
                         Standard orientation:                         
 ---------------------------------------------------------------------
 Center     Atomic      Atomic             Coordinates (Angstroms)
 Number     Number       Type             X           Y           Z
 ---------------------------------------------------------------------
      1          6           0       -0.639254    0.439975    0.589758
      2          6           0       -0.664327    1.535903   -0.442785
      3          6           0        0.000000    2.751904   -0.227407
      4          6           0        0.011632    3.735391   -1.218807
      5          6           0       -0.635076    3.514294   -2.438789
      6          6           0       -1.301189    2.305774   -2.658913
      7          6           0       -1.319367    1.325208   -1.663896
      8          1           0       -1.847101    0.383225   -1.836209
      9          1           0       -1.815867    2.127626   -3.605786
     10          1           0       -0.626553    4.285321   -3.212442
     11          1           0        0.525072    4.682405   -1.036597
     12          1           0        0.488503    2.927830    0.733020
     13          8           0       -0.616055    0.978191    1.914831
     14          6           0       -0.000000    0.000000    2.780358
     15          8           0        0.616055   -0.978191    1.914831
     16          6           0        0.639254   -0.439975    0.589758
     17          6           0        0.664327   -1.535903   -0.442785
     18          6           0        1.319367   -1.325208   -1.663896
     19          6           0        1.301189   -2.305774   -2.658913
     20          6           0        0.635076   -3.514294   -2.438789
     21          6           0       -0.011632   -3.735391   -1.218807
     22          6           0       -0.000000   -2.751904   -0.227407
     23          1           0       -0.488503   -2.927830    0.733020
     24          1           0       -0.525072   -4.682405   -1.036597
     25          1           0        0.626553   -4.285321   -3.212442
     26          1           0        1.815867   -2.127626   -3.605786
     27          1           0        1.847101   -0.383225   -1.836209
     28          1           0        1.515749    0.223924    0.451805
     29          6           0        1.052022    0.714928    3.620805
     30          1           0        0.587263    1.526408    4.199063
     31          1           0        1.525674    0.009183    4.317631
     32          1           0        1.825682    1.145038    2.970001
     33          6           0       -1.052022   -0.714928    3.620805
     34          1           0       -1.525674   -0.009183    4.317631
     35          1           0       -1.825682   -1.145038    2.970001
     36          1           0       -0.587263   -1.526408    4.199063
     37          1           0       -1.515749   -0.223924    0.451805
 ---------------------------------------------------------------------
 Rotational constants (GHZ):           0.4051028           0.3647496           0.2158365
 Standard basis: 6-311+G(2d,p) (5D, 7F)
 There are   332 symmetry adapted cartesian basis functions of A   symmetry.
 There are   327 symmetry adapted cartesian basis functions of B   symmetry.
 There are   312 symmetry adapted basis functions of A   symmetry.
 There are   309 symmetry adapted basis functions of B   symmetry.
   621 basis functions,   942 primitive gaussians,   659 cartesian basis functions
    68 alpha electrons       68 beta electrons
       nuclear repulsion energy      1408.4797830712 Hartrees.
 NAtoms=   37 NActive=   37 NUniq=   19 SFac= 3.79D+00 NAtFMM=   60 NAOKFM=F Big=F
 Integral buffers will be    131072 words long.
 Raffenetti 2 integral format.
 Two-electron integral symmetry is turned on.
 ------------------------------------------------------------------------------
 Polarizable Continuum Model (PCM)
 =================================
 Model                : PCM.
 Atomic radii         : UFF (Universal Force Field).
 Polarization charges : Total charges.
 Charge compensation  : None.
 Solution method      : On-the-fly selection.
 Cavity type          : Scaled VdW (van der Waals Surface) (Alpha=1.100).
 Cavity algorithm     : GePol (No added spheres)
                        Default sphere list used, NSphG=   37.
                        Lebedev-Laikov grids with approx.  5.0 points / Ang**2.
                        Smoothing algorithm: York/Karplus (Gamma=1.0000).
                        Polarization charges: spherical gaussians, with
                                              point-specific exponents (IZeta= 3).
                        Self-potential: point-specific (ISelfS= 7).
                        Self-field    : sphere-specific E.n sum rule (ISelfD= 2).
 Solvent              : Chloroform, Eps=   4.711300 Eps(inf)=   2.090627
 ------------------------------------------------------------------------------
 One-electron integrals computed using PRISM.
 NBasis=   621 RedAO= T EigKep=  1.58D-06  NBF=   312   309
 NBsUse=   619 1.00D-06 EigRej=  9.55D-07 NBFU=   311   308
 ExpMin= 4.38D-02 ExpMax= 8.59D+03 ExpMxC= 1.30D+03 IAcc=3 IRadAn=         5 AccDes= 0.00D+00
 Harris functional with IExCor= 1009 and IRadAn=       5 diagonalized for initial guess.
 HarFok:  IExCor= 1009 AccDes= 0.00D+00 IRadAn=         5 IDoV= 1 UseB2=F ITyADJ=14
 ICtDFT=  3500011 ScaDFX=  1.000000  1.000000  1.000000  1.000000
 FoFCou: FMM=F IPFlag=           0 FMFlag=      100000 FMFlg1=           0
         NFxFlg=           0 DoJE=T BraDBF=F KetDBF=T FulRan=T
         wScrn=  0.000000 ICntrl=       500 IOpCl=  0 I1Cent=   200000004 NGrid=           0
         NMat0=    1 NMatS0=      1 NMatT0=    0 NMatD0=    1 NMtDS0=    0 NMtDT0=    0
 Petite list used in FoFCou.
 Initial guess orbital symmetries:
       Occupied  (A) (B) (B) (A) (B) (A) (B) (A) (B) (A) (B) (A)
                 (A) (B) (A) (B) (A) (B) (A) (A) (B) (A) (B) (A)
                 (B) (A) (B) (A) (B) (A) (B) (B) (A) (A) (B) (A)
                 (A) (B) (B) (A) (A) (B) (B) (A) (B) (A) (A) (B)
                 (B) (A) (A) (B) (A) (A) (B) (B) (A) (B) (B) (A)
                 (A) (B) (A) (A) (B) (B) (B) (A)
       Virtual   (B) (A) (B) (A) (A) (A) (B) (B) (B) (A) (A) (B)
                 (A) (B) (B) (A) (B) (A) (A) (B) (A) (B) (A) (B)
                 (A) (A) (B) (A) (A) (B) (A) (B) (A) (B) (B) (A)
                 (B) (A) (B) (B) (A) (B) (A) (A) (B) (A) (B) (B)
                 (A) (B) (A) (B) (A) (B) (A) (B) (A) (B) (B) (A)
                 (B) (A) (B) (B) (A) (A) (B) (A) (B) (A) (B) (B)
                 (A) (A) (A) (B) (A) (A) (B) (A) (B) (B) (A) (B)
                 (A) (B) (A) (B) (A) (B) (B) (A) (B) (A) (B) (B)
                 (A) (B) (A) (B) (A) (A) (B) (B) (A) (A) (B) (A)
                 (B) (A) (B) (A) (B) (A) (B) (A) (A) (B) (B) (A)
                 (B) (A) (A) (B) (B) (A) (B) (A) (B) (A) (B) (A)
                 (A) (A) (B) (A) (B) (B) (A) (A) (B) (B) (B) (A)
                 (B) (A) (A) (B) (B) (B) (A) (A) (A) (B) (B) (A)
                 (B) (A) (A) (B) (B) (A) (A) (B) (A) (B) (B) (A)
                 (A) (B) (B) (A) (A) (B) (B) (A) (B) (A) (B) (A)
                 (B) (A) (A) (A) (B) (B) (A) (B) (A) (B) (A) (B)
                 (B) (A) (B) (A) (B) (A) (B) (A) (B) (A) (B) (A)
                 (B) (A) (B) (A) (A) (A) (B) (B) (B) (A) (B) (B)
                 (A) (A) (A) (B) (A) (B) (A) (B) (A) (B) (A) (B)
                 (B) (B) (A) (A) (B) (B) (A) (B) (A) (A) (B) (A)
                 (B) (A) (B) (A) (B) (B) (A) (A) (A) (B) (A) (A)
                 (B) (B) (B) (A) (A) (B) (A) (B) (B) (A) (A) (B)
                 (A) (B) (A) (A) (B) (A) (B) (A) (B) (B) (A) (A)
                 (B) (A) (B) (B) (A) (B) (B) (B) (A) (A) (A) (B)
                 (A) (B) (A) (B) (A) (B) (A) (B) (A) (B) (A) (B)
                 (B) (A) (B) (A) (B) (B) (A) (A) (B) (A) (B) (A)
                 (B) (A) (A) (B) (B) (A) (B) (A) (B) (A) (A) (B)
                 (B) (A) (B) (B) (A) (B) (A) (B) (A) (A) (B) (B)
                 (B) (A) (A) (B) (A) (B) (A) (A) (A) (B) (B) (B)
                 (A) (A) (A) (B) (B) (A) (B) (A) (B) (B) (A) (A)
                 (A) (A) (B) (B) (A) (B) (A) (A) (B) (B) (A) (B)
                 (A) (A) (B) (B) (B) (A) (B) (A) (A) (B) (A) (B)
                 (A) (B) (A) (A) (B) (B) (A) (A) (B) (B) (A) (B)
                 (A) (B) (B) (A) (B) (B) (A) (B) (A) (A) (B) (A)
                 (B) (A) (A) (B) (A) (B) (B) (A) (A) (A) (B) (A)
                 (B) (B) (A) (A) (B) (B) (A) (A) (B) (A) (B) (B)
                 (A) (B) (A) (A) (B) (A) (B) (B) (A) (B) (A) (B)
                 (B) (A) (A) (B) (B) (A) (A) (B) (A) (B) (B) (A)
                 (B) (A) (B) (A) (A) (B) (A) (B) (A) (B) (A) (B)
                 (A) (A) (B) (A) (B) (B) (A) (A) (B) (A) (B) (B)
                 (A) (B) (A) (B) (A) (B) (A) (A) (A) (B) (B) (B)
                 (A) (A) (B) (A) (B) (A) (B) (A) (B) (B) (A) (A)
                 (B) (B) (A) (B) (A) (B) (B) (A) (B) (A) (A) (B)
                 (A) (B) (A) (B) (A) (B) (A) (B) (B) (B) (A) (B)
                 (A) (A) (A) (B) (B) (A) (B) (A) (B) (A) (A) (B)
                 (A) (B) (A) (B) (A) (B) (A) (A) (B) (B) (A)
 The electronic state of the initial guess is 1-A.
 Requested convergence on RMS density matrix=1.00D-08 within 128 cycles.
 Requested convergence on MAX density matrix=1.00D-06.
 Requested convergence on             energy=1.00D-06.
 No special actions if energy rises.
 Inv3:  Mode=1 IEnd=    21067500.
 Iteration    1 A*A^-1 deviation from unit magnitude is 8.44D-15 for    359.
 Iteration    1 A*A^-1 deviation from orthogonality  is 4.52D-15 for   2225   1899.
 Iteration    1 A^-1*A deviation from unit magnitude is 7.66D-15 for   1366.
 Iteration    1 A^-1*A deviation from orthogonality  is 3.11D-15 for   1993    595.
 Error on total polarization charges =  0.01570
 SCF Done:  E(RPBE1PBE) =  -808.379159914     A.U. after   13 cycles
            NFock= 13  Conv=0.39D-08     -V/T= 2.0048
 DoSCS=F DFT=T ScalE2(SS,OS)=  1.000000  1.000000
 Range of M.O.s used for correlation:     1   619
 NBasis=   621 NAE=    68 NBE=    68 NFC=     0 NFV=     0
 NROrb=    619 NOA=    68 NOB=    68 NVA=   551 NVB=   551

 **** Warning!!: The largest alpha MO coefficient is  0.11975009D+03

 NEqPCM:  Using equilibrium solvation (IEInf=0, Eps=   4.7113, EpsInf=   2.0906)
          Differentiating once with respect to magnetic field using GIAOs.
          Electric field/nuclear overlap derivatives assumed to be zero.
 FoFJK:  IHMeth= 1 ICntrl=    6127 DoSepK=F KAlg= 0 I1Cent=           0 FoldK=F
 IRaf=         1 NMat=       1 IRICut=       1 DoRegI=T DoRafI=F ISym2E= 0 IDoP0=0 IntGTp=1.
          There are     3 degrees of freedom in the 1st order CPHF.  IDoFFX=0 NUNeed=     3.
      3 vectors produced by pass  0 Test12= 1.25D-12 3.33D-08 XBig12= 3.21D+02 2.96D+00.
 AX will form     3 AO Fock derivatives at one time.
      3 vectors produced by pass  1 Test12= 1.25D-12 3.33D-08 XBig12= 9.90D-01 2.93D-01.
      3 vectors produced by pass  2 Test12= 1.25D-12 3.33D-08 XBig12= 5.44D-03 2.41D-02.
      3 vectors produced by pass  3 Test12= 1.25D-12 3.33D-08 XBig12= 1.76D-05 7.00D-04.
      3 vectors produced by pass  4 Test12= 1.25D-12 3.33D-08 XBig12= 4.12D-08 4.18D-05.
      3 vectors produced by pass  5 Test12= 1.25D-12 3.33D-08 XBig12= 1.50D-10 2.70D-06.
      3 vectors produced by pass  6 Test12= 1.25D-12 3.33D-08 XBig12= 5.66D-13 1.17D-07.
 InvSVY:  IOpt=1 It=  1 EMax= 1.78D-15
 Solved reduced A of dimension    21 with     3 vectors.
 Calculating GIAO nuclear magnetic shielding tensors.
 SCF GIAO Magnetic shielding tensor (ppm):
      1  C    Isotropic =    95.2267   Anisotropy =    40.1176
   XX=    82.8241   YX=   -15.4012   ZX=     0.5017
   XY=    -5.1075   YY=    89.0755   ZY=    15.7286
   XZ=    -5.5070   YZ=    14.1132   ZZ=   113.7806
   Eigenvalues:    73.7592    89.9491   121.9718
      2  C    Isotropic =    43.9979   Anisotropy =   188.7865
   XX=   124.5063   YX=   -53.4720   ZX=   -44.8858
   XY=   -47.4245   YY=     6.7303   ZY=    58.7184
   XZ=   -51.9792   YZ=    57.6636   ZZ=     0.7572
   Eigenvalues:   -54.5248    16.6630   169.8556
      3  C    Isotropic =    56.1016   Anisotropy =   189.7468
   XX=   120.9492   YX=   -48.8415   ZX=   -91.0857
   XY=   -54.2913   YY=    53.9379   ZY=     8.0900
   XZ=   -79.6415   YZ=     4.9439   ZZ=    -6.5822
   Eigenvalues:   -52.4993    38.2046   182.5995
      4  C    Isotropic =    53.0869   Anisotropy =   187.2443
   XX=   114.4034   YX=   -86.0565   ZX=   -53.4508
   XY=   -84.7973   YY=   -11.8285   ZY=     6.7053
   XZ=   -51.4346   YZ=     4.9620   ZZ=    56.6858
   Eigenvalues:   -58.2006    39.5448   177.9164
      5  C    Isotropic =    53.5860   Anisotropy =   186.1511
   XX=   137.0696   YX=   -48.6062   ZX=   -39.9256
   XY=   -46.0699   YY=    14.7660   ZY=    66.5947
   XZ=   -43.7701   YZ=    68.5713   ZZ=     8.9223
   Eigenvalues:   -55.8408    38.9120   177.6867
      6  C    Isotropic =    54.1331   Anisotropy =   185.4808
   XX=   115.1288   YX=   -53.4986   ZX=   -82.8106
   XY=   -52.4215   YY=    60.4165   ZY=     7.7929
   XZ=   -82.2268   YZ=     7.2796   ZZ=   -13.1459
   Eigenvalues:   -56.1333    40.7456   177.7870
      7  C    Isotropic =    53.5820   Anisotropy =   175.8513
   XX=   104.0865   YX=   -83.3387   ZX=   -60.0753
   XY=   -80.9870   YY=    -7.4422   ZY=    11.5993
   XZ=   -45.6744   YZ=    -0.4275   ZZ=    64.1016
   Eigenvalues:   -54.6582    44.5879   170.8162
      8  H    Isotropic =    24.6667   Anisotropy =     9.2408
   XX=    23.6433   YX=    -2.7711   ZX=     3.4278
   XY=    -1.5793   YY=    23.6324   ZY=    -2.5860
   XZ=     3.4127   YZ=    -3.3859   ZZ=    26.7246
   Eigenvalues:    21.3466    21.8264    30.8273
      9  H    Isotropic =    24.0309   Anisotropy =     5.6337
   XX=    21.6543   YX=     0.7897   ZX=     1.1310
   XY=     1.4374   YY=    26.4581   ZY=    -2.0622
   XZ=     0.9938   YZ=    -2.3635   ZZ=    23.9803
   Eigenvalues:    20.5855    23.7205    27.7867
     10  H    Isotropic =    23.8270   Anisotropy =     4.3498
   XX=    22.2014   YX=     1.4684   ZX=     2.3224
   XY=     2.0416   YY=    24.8620   ZY=     0.3982
   XZ=     2.0229   YZ=     0.3657   ZZ=    24.4177
   Eigenvalues:    20.4612    24.2930    26.7269
     11  H    Isotropic =    23.6888   Anisotropy =     5.7351
   XX=    20.8898   YX=     0.3387   ZX=     1.5944
   XY=     0.8160   YY=    24.1830   ZY=    -1.9806
   XZ=     1.5796   YZ=    -2.1600   ZZ=    25.9935
   Eigenvalues:    20.0831    23.4711    27.5122
     12  H    Isotropic =    23.3289   Anisotropy =    11.1222
   XX=    18.8372   YX=     1.8895   ZX=    -0.9414
   XY=     2.9975   YY=    28.5933   ZY=    -3.0981
   XZ=    -0.4553   YZ=    -3.9455   ZZ=    22.5562
   Eigenvalues:    18.2540    20.9890    30.7437
     13  O    Isotropic =   190.4560   Anisotropy =   100.6947
   XX=   127.4363   YX=   -64.0268   ZX=     6.3873
   XY=   -69.0844   YY=   219.5600   ZY=    -3.1776
   XZ=     5.5879   YZ=   -13.6287   ZZ=   224.3716
   Eigenvalues:    92.5428   221.2393   257.5858
     14  C    Isotropic =    71.6557   Anisotropy =    44.2088
   XX=    71.4927   YX=   -25.1242   ZX=    -0.0000
   XY=   -26.2167   YY=    78.8923   ZY=    -0.0000
   XZ=    -0.0000   YZ=     0.0000   ZZ=    64.5820
   Eigenvalues:    49.2568    64.5820   101.1282
     15  O    Isotropic =   190.4560   Anisotropy =   100.6947
   XX=   127.4363   YX=   -64.0268   ZX=    -6.3873
   XY=   -69.0844   YY=   219.5600   ZY=     3.1776
   XZ=    -5.5879   YZ=    13.6287   ZZ=   224.3716
   Eigenvalues:    92.5428   221.2393   257.5858
     16  C    Isotropic =    95.2267   Anisotropy =    40.1176
   XX=    82.8241   YX=   -15.4012   ZX=    -0.5017
   XY=    -5.1075   YY=    89.0755   ZY=   -15.7286
   XZ=     5.5070   YZ=   -14.1132   ZZ=   113.7806
   Eigenvalues:    73.7592    89.9491   121.9718
     17  C    Isotropic =    43.9979   Anisotropy =   188.7865
   XX=   124.5063   YX=   -53.4720   ZX=    44.8858
   XY=   -47.4245   YY=     6.7303   ZY=   -58.7184
   XZ=    51.9792   YZ=   -57.6636   ZZ=     0.7572
   Eigenvalues:   -54.5248    16.6630   169.8556
     18  C    Isotropic =    53.5820   Anisotropy =   175.8513
   XX=   104.0865   YX=   -83.3387   ZX=    60.0753
   XY=   -80.9870   YY=    -7.4422   ZY=   -11.5993
   XZ=    45.6744   YZ=     0.4275   ZZ=    64.1016
   Eigenvalues:   -54.6582    44.5879   170.8162
     19  C    Isotropic =    54.1331   Anisotropy =   185.4808
   XX=   115.1288   YX=   -53.4986   ZX=    82.8106
   XY=   -52.4215   YY=    60.4165   ZY=    -7.7929
   XZ=    82.2268   YZ=    -7.2796   ZZ=   -13.1459
   Eigenvalues:   -56.1333    40.7456   177.7870
     20  C    Isotropic =    53.5860   Anisotropy =   186.1511
   XX=   137.0696   YX=   -48.6062   ZX=    39.9256
   XY=   -46.0699   YY=    14.7660   ZY=   -66.5947
   XZ=    43.7701   YZ=   -68.5713   ZZ=     8.9223
   Eigenvalues:   -55.8408    38.9120   177.6867
     21  C    Isotropic =    53.0869   Anisotropy =   187.2443
   XX=   114.4034   YX=   -86.0565   ZX=    53.4508
   XY=   -84.7973   YY=   -11.8285   ZY=    -6.7053
   XZ=    51.4346   YZ=    -4.9620   ZZ=    56.6858
   Eigenvalues:   -58.2006    39.5448   177.9164
     22  C    Isotropic =    56.1016   Anisotropy =   189.7468
   XX=   120.9492   YX=   -48.8415   ZX=    91.0857
   XY=   -54.2913   YY=    53.9379   ZY=    -8.0900
   XZ=    79.6415   YZ=    -4.9439   ZZ=    -6.5822
   Eigenvalues:   -52.4993    38.2046   182.5995
     23  H    Isotropic =    23.3289   Anisotropy =    11.1222
   XX=    18.8372   YX=     1.8895   ZX=     0.9414
   XY=     2.9975   YY=    28.5933   ZY=     3.0981
   XZ=     0.4553   YZ=     3.9455   ZZ=    22.5562
   Eigenvalues:    18.2540    20.9890    30.7437
     24  H    Isotropic =    23.6888   Anisotropy =     5.7351
   XX=    20.8898   YX=     0.3387   ZX=    -1.5944
   XY=     0.8160   YY=    24.1830   ZY=     1.9806
   XZ=    -1.5796   YZ=     2.1600   ZZ=    25.9935
   Eigenvalues:    20.0831    23.4711    27.5122
     25  H    Isotropic =    23.8270   Anisotropy =     4.3498
   XX=    22.2014   YX=     1.4684   ZX=    -2.3224
   XY=     2.0416   YY=    24.8620   ZY=    -0.3982
   XZ=    -2.0229   YZ=    -0.3657   ZZ=    24.4177
   Eigenvalues:    20.4612    24.2930    26.7269
     26  H    Isotropic =    24.0309   Anisotropy =     5.6337
   XX=    21.6543   YX=     0.7897   ZX=    -1.1310
   XY=     1.4374   YY=    26.4581   ZY=     2.0622
   XZ=    -0.9938   YZ=     2.3635   ZZ=    23.9803
   Eigenvalues:    20.5855    23.7205    27.7867
     27  H    Isotropic =    24.6667   Anisotropy =     9.2408
   XX=    23.6433   YX=    -2.7711   ZX=    -3.4278
   XY=    -1.5793   YY=    23.6324   ZY=     2.5860
   XZ=    -3.4127   YZ=     3.3859   ZZ=    26.7246
   Eigenvalues:    21.3466    21.8264    30.8273
     28  H    Isotropic =    26.7828   Anisotropy =     5.5124
   XX=    26.2515   YX=     1.3337   ZX=    -0.5027
   XY=     2.0504   YY=    25.4481   ZY=    -1.9282
   XZ=    -3.6008   YZ=    -0.1619   ZZ=    28.6488
   Eigenvalues:    24.0461    25.8446    30.4577
     29  C    Isotropic =   159.6567   Anisotropy =    41.0256
   XX=   168.2302   YX=    11.4468   ZX=    16.1330
   XY=    13.3977   YY=   154.4359   ZY=     8.1016
   XZ=    17.1283   YZ=     9.3398   ZZ=   156.3042
   Eigenvalues:   144.5997   147.3634   187.0071
     30  H    Isotropic =    29.8740   Anisotropy =     8.5029
   XX=    27.0843   YX=     0.7635   ZX=     0.3426
   XY=    -0.2537   YY=    31.3045   ZY=     4.2973
   XZ=    -0.2064   YZ=     4.2376   ZZ=    31.2331
   Eigenvalues:    26.9031    27.1763    35.5426
     31  H    Isotropic =    29.9994   Anisotropy =     8.9650
   XX=    29.8410   YX=    -1.0417   ZX=     4.9626
   XY=     0.0302   YY=    28.1486   ZY=    -1.6892
   XZ=     3.9617   YZ=    -2.3172   ZZ=    32.0085
   Eigenvalues:    25.9468    28.0753    35.9760
     32  H    Isotropic =    29.7783   Anisotropy =     7.1855
   XX=    31.6036   YX=     4.5395   ZX=    -0.2778
   XY=     4.1233   YY=    28.2402   ZY=    -1.0441
   XZ=     0.6712   YZ=     0.6081   ZZ=    29.4912
   Eigenvalues:    25.2555    29.5109    34.5687
     33  C    Isotropic =   159.6567   Anisotropy =    41.0256
   XX=   168.2302   YX=    11.4468   ZX=   -16.1330
   XY=    13.3977   YY=   154.4359   ZY=    -8.1016
   XZ=   -17.1283   YZ=    -9.3398   ZZ=   156.3042
   Eigenvalues:   144.5997   147.3634   187.0071
     34  H    Isotropic =    29.9994   Anisotropy =     8.9650
   XX=    29.8410   YX=    -1.0417   ZX=    -4.9626
   XY=     0.0302   YY=    28.1486   ZY=     1.6892
   XZ=    -3.9617   YZ=     2.3172   ZZ=    32.0085
   Eigenvalues:    25.9468    28.0753    35.9760
     35  H    Isotropic =    29.7783   Anisotropy =     7.1855
   XX=    31.6036   YX=     4.5395   ZX=     0.2778
   XY=     4.1233   YY=    28.2402   ZY=     1.0441
   XZ=    -0.6712   YZ=    -0.6081   ZZ=    29.4912
   Eigenvalues:    25.2555    29.5109    34.5687
     36  H    Isotropic =    29.8740   Anisotropy =     8.5029
   XX=    27.0843   YX=     0.7635   ZX=    -0.3426
   XY=    -0.2537   YY=    31.3045   ZY=    -4.2973
   XZ=     0.2064   YZ=    -4.2376   ZZ=    31.2331
   Eigenvalues:    26.9031    27.1763    35.5426
     37  H    Isotropic =    26.7828   Anisotropy =     5.5124
   XX=    26.2515   YX=     1.3337   ZX=     0.5027
   XY=     2.0504   YY=    25.4481   ZY=     1.9282
   XZ=     3.6008   YZ=     0.1619   ZZ=    28.6488
   Eigenvalues:    24.0461    25.8446    30.4577
 End of Minotr F.D. properties file   721 does not exist.
 End of Minotr F.D. properties file   722 does not exist.
 End of Minotr F.D. properties file   788 does not exist.

 **********************************************************************

            Population analysis using the SCF Density.

 **********************************************************************

 Orbital symmetries:
       Occupied  (B) (A) (A) (A) (B) (A) (B) (B) (A) (A) (B) (A)
                 (B) (A) (B) (B) (A) (B) (A) (A) (B) (A) (B) (A)
                 (B) (A) (B) (A) (B) (A) (B) (B) (A) (A) (B) (A)
                 (A) (B) (B) (A) (B) (A) (A) (B) (B) (A) (A) (B)
                 (A) (B) (A) (B) (A) (B) (A) (A) (B) (B) (B) (A)
                 (B) (A) (A) (B) (A) (B) (B) (A)
       Virtual   (B) (A) (A) (B) (A) (B) (A) (B) (A) (B) (B) (A)
                 (B) (A) (B) (A) (A) (B) (A) (B) (A) (B) (A) (B)
                 (A) (B) (A) (A) (B) (A) (B) (B) (A) (B) (A) (B)
                 (B) (A) (A) (B) (A) (B) (B) (A) (A) (B) (A) (B)
                 (B) (A) (B) (A) (A) (B) (B) (A) (B) (A) (A) (B)
                 (A) (B) (B) (A) (B) (A) (A) (A) (A) (B) (B) (A)
                 (B) (A) (B) (A) (A) (B) (B) (A) (B) (A) (B) (A)
                 (B) (A) (B) (B) (B) (A) (A) (B) (B) (A) (B) (B)
                 (A) (B) (A) (B) (A) (B) (A) (A) (B) (B) (A) (B)
                 (A) (A) (B) (A) (B) (A) (B) (A) (B) (A) (B) (A)
                 (B) (A) (B) (B) (A) (A) (B) (A) (A) (B) (A) (A)
                 (B) (B) (A) (B) (A) (B) (A) (A) (B) (B) (B) (A)
                 (B) (A) (A) (B) (B) (B) (A) (A) (A) (B) (B) (A)
                 (B) (A) (B) (B) (A) (A) (A) (B) (A) (B) (A) (B)
                 (B) (A) (A) (A) (B) (B) (B) (A) (B) (B) (B) (A)
                 (A) (A) (A) (B) (B) (A) (B) (A) (B) (B) (A) (A)
                 (B) (A) (A) (B) (B) (A) (A) (B) (B) (A) (B) (A)
                 (A) (B) (A) (B) (A) (A) (B) (B) (B) (A) (B) (B)
                 (A) (A) (B) (A) (A) (B) (A) (B) (A) (B) (A) (B)
                 (B) (B) (A) (A) (B) (B) (A) (B) (A) (B) (A) (A)
                 (B) (B) (A) (A) (B) (A) (B) (A) (B) (A) (A) (B)
                 (A) (B) (A) (A) (B) (B) (A) (B) (B) (A) (A) (B)
                 (A) (B) (A) (B) (A) (A) (B) (B) (A) (B) (A) (A)
                 (B) (B) (A) (B) (B) (A) (B) (B) (A) (A) (B) (A)
                 (A) (B) (A) (B) (B) (A) (A) (B) (A) (A) (B) (B)
                 (B) (A) (B) (A) (B) (B) (A) (A) (B) (A) (B) (A)
                 (B) (A) (B) (A) (B) (A) (B) (A) (B) (A) (B) (A)
                 (B) (A) (B) (B) (A) (A) (B) (A) (B) (B) (A) (B)
                 (A) (B) (B) (A) (A) (B) (A) (A) (A) (B) (B) (B)
                 (A) (A) (A) (B) (B) (A) (A) (B) (B) (A) (A) (B)
                 (A) (A) (B) (B) (A) (A) (B) (A) (B) (A) (B) (B)
                 (B) (A) (B) (A) (B) (B) (A) (A) (A) (B) (A) (B)
                 (A) (B) (A) (B) (A) (B) (A) (B) (A) (A) (B) (A)
                 (B) (B) (B) (A) (B) (B) (A) (A) (B) (A) (B) (A)
                 (B) (A) (A) (B) (A) (B) (A) (B) (A) (B) (A) (A)
                 (B) (B) (A) (A) (B) (B) (A) (B) (A) (B) (B) (A)
                 (A) (B) (A) (B) (A) (B) (A) (B) (A) (B) (A) (B)
                 (A) (B) (A) (B) (A) (B) (A) (A) (B) (B) (A) (B)
                 (B) (A) (A) (B) (A) (B) (A) (B) (A) (A) (B) (A)
                 (B) (A) (B) (A) (B) (B) (A) (A) (B) (A) (B) (B)
                 (A) (B) (A) (B) (A) (B) (A) (B) (A) (A) (B) (B)
                 (A) (A) (B) (A) (B) (A) (B) (A) (B) (B) (A) (A)
                 (B) (B) (A) (B) (A) (B) (B) (A) (B) (A) (A) (B)
                 (A) (B) (A) (B) (A) (B) (A) (B) (B) (B) (A) (B)
                 (A) (A) (A) (B) (B) (A) (A) (B) (A) (B) (A) (A)
                 (B) (B) (A) (B) (A) (B) (A) (A) (B) (B) (A)
 The electronic state is 1-A.
 Alpha  occ. eigenvalues --  -19.22172 -19.22172 -10.33567 -10.29011 -10.28988
 Alpha  occ. eigenvalues --  -10.24366 -10.24366 -10.23410 -10.23410 -10.23340
 Alpha  occ. eigenvalues --  -10.23340 -10.23320 -10.23320 -10.23236 -10.23236
 Alpha  occ. eigenvalues --  -10.23199 -10.23199 -10.21462 -10.21461  -1.12305
 Alpha  occ. eigenvalues --   -1.03135  -0.89529  -0.88753  -0.84087  -0.78710
 Alpha  occ. eigenvalues --   -0.78463  -0.77414  -0.77380  -0.72142  -0.72071
 Alpha  occ. eigenvalues --   -0.67239  -0.63312  -0.63265  -0.61407  -0.60144
 Alpha  occ. eigenvalues --   -0.59844  -0.54385  -0.54353  -0.53293  -0.50096
 Alpha  occ. eigenvalues --   -0.48420  -0.47924  -0.46748  -0.46747  -0.45562
 Alpha  occ. eigenvalues --   -0.45150  -0.44105  -0.43698  -0.43486  -0.43305
 Alpha  occ. eigenvalues --   -0.40778  -0.40620  -0.40292  -0.39012  -0.38753
 Alpha  occ. eigenvalues --   -0.37916  -0.37876  -0.36662  -0.36195  -0.35752
 Alpha  occ. eigenvalues --   -0.35552  -0.34889  -0.30182  -0.28187  -0.27358
 Alpha  occ. eigenvalues --   -0.26949  -0.26778  -0.25847
 Alpha virt. eigenvalues --   -0.02179  -0.01896  -0.01595  -0.01219   0.00762
 Alpha virt. eigenvalues --    0.01886   0.01960   0.02332   0.03729   0.03978
 Alpha virt. eigenvalues --    0.04115   0.04227   0.05441   0.05528   0.06026
 Alpha virt. eigenvalues --    0.06101   0.06232   0.06286   0.07499   0.08063
 Alpha virt. eigenvalues --    0.08376   0.08508   0.08537   0.09431   0.09733
 Alpha virt. eigenvalues --    0.10395   0.10589   0.11084   0.11452   0.11883
 Alpha virt. eigenvalues --    0.12189   0.12518   0.12640   0.13020   0.13208
 Alpha virt. eigenvalues --    0.13544   0.14245   0.14567   0.14684   0.14760
 Alpha virt. eigenvalues --    0.15285   0.15381   0.16197   0.16546   0.17118
 Alpha virt. eigenvalues --    0.17258   0.17653   0.18163   0.18293   0.18338
 Alpha virt. eigenvalues --    0.18598   0.18658   0.18979   0.19726   0.19998
 Alpha virt. eigenvalues --    0.20422   0.20646   0.21008   0.21240   0.21248
 Alpha virt. eigenvalues --    0.21573   0.21818   0.22046   0.22309   0.22705
 Alpha virt. eigenvalues --    0.22937   0.23325   0.23406   0.24082   0.24125
 Alpha virt. eigenvalues --    0.24292   0.24665   0.24991   0.25296   0.25474
 Alpha virt. eigenvalues --    0.25831   0.25907   0.26092   0.26726   0.27294
 Alpha virt. eigenvalues --    0.27580   0.27648   0.27960   0.28520   0.28677
 Alpha virt. eigenvalues --    0.28912   0.28958   0.29730   0.30443   0.30563
 Alpha virt. eigenvalues --    0.30978   0.31031   0.31794   0.32838   0.32845
 Alpha virt. eigenvalues --    0.33466   0.33644   0.33754   0.34301   0.34926
 Alpha virt. eigenvalues --    0.35302   0.35727   0.36237   0.37148   0.38102
 Alpha virt. eigenvalues --    0.38498   0.38694   0.38889   0.39502   0.41125
 Alpha virt. eigenvalues --    0.42860   0.43401   0.44576   0.45179   0.45782
 Alpha virt. eigenvalues --    0.47264   0.47434   0.48206   0.50062   0.50496
 Alpha virt. eigenvalues --    0.50744   0.51697   0.52219   0.52396   0.52816
 Alpha virt. eigenvalues --    0.53124   0.53329   0.53551   0.53984   0.54495
 Alpha virt. eigenvalues --    0.54701   0.55418   0.55632   0.55934   0.56939
 Alpha virt. eigenvalues --    0.57102   0.58262   0.58354   0.58637   0.59313
 Alpha virt. eigenvalues --    0.60438   0.61133   0.61719   0.62136   0.62415
 Alpha virt. eigenvalues --    0.62962   0.63789   0.63859   0.64386   0.65044
 Alpha virt. eigenvalues --    0.65230   0.65700   0.66162   0.66255   0.66386
 Alpha virt. eigenvalues --    0.66766   0.67421   0.67755   0.68213   0.68750
 Alpha virt. eigenvalues --    0.69214   0.69841   0.70330   0.70467   0.71337
 Alpha virt. eigenvalues --    0.71366   0.71715   0.72040   0.73757   0.73868
 Alpha virt. eigenvalues --    0.74601   0.74655   0.74866   0.75396   0.75633
 Alpha virt. eigenvalues --    0.76692   0.77208   0.77743   0.78285   0.78441
 Alpha virt. eigenvalues --    0.78849   0.79753   0.80236   0.80816   0.81406
 Alpha virt. eigenvalues --    0.81978   0.82185   0.82503   0.82796   0.83168
 Alpha virt. eigenvalues --    0.83562   0.83864   0.83886   0.83986   0.84499
 Alpha virt. eigenvalues --    0.85590   0.85964   0.86711   0.87983   0.88424
 Alpha virt. eigenvalues --    0.89824   0.90550   0.91275   0.92633   0.94287
 Alpha virt. eigenvalues --    0.94687   0.96234   0.96820   0.98530   0.99459
 Alpha virt. eigenvalues --    1.00793   1.02496   1.03760   1.03767   1.04491
 Alpha virt. eigenvalues --    1.05523   1.05667   1.06453   1.07211   1.07272
 Alpha virt. eigenvalues --    1.07345   1.09987   1.11239   1.11822   1.12450
 Alpha virt. eigenvalues --    1.13265   1.14690   1.15403   1.18870   1.19672
 Alpha virt. eigenvalues --    1.20061   1.20679   1.21418   1.22214   1.22657
 Alpha virt. eigenvalues --    1.22908   1.24851   1.25803   1.26318   1.26392
 Alpha virt. eigenvalues --    1.26787   1.26967   1.27079   1.28430   1.30169
 Alpha virt. eigenvalues --    1.31289   1.31558   1.32212   1.33017   1.33618
 Alpha virt. eigenvalues --    1.33765   1.34537   1.34723   1.35152   1.35421
 Alpha virt. eigenvalues --    1.36127   1.36336   1.36982   1.38176   1.38772
 Alpha virt. eigenvalues --    1.40184   1.40192   1.41402   1.43267   1.45599
 Alpha virt. eigenvalues --    1.46154   1.46247   1.48361   1.48379   1.49864
 Alpha virt. eigenvalues --    1.50731   1.51034   1.51212   1.53027   1.53304
 Alpha virt. eigenvalues --    1.54614   1.55642   1.56372   1.56665   1.57089
 Alpha virt. eigenvalues --    1.57478   1.57877   1.59054   1.60743   1.61462
 Alpha virt. eigenvalues --    1.62419   1.64266   1.64272   1.67807   1.68671
 Alpha virt. eigenvalues --    1.69125   1.69480   1.70733   1.70804   1.75206
 Alpha virt. eigenvalues --    1.75800   1.78129   1.79635   1.79881   1.82447
 Alpha virt. eigenvalues --    1.83833   1.84500   1.85320   1.87971   1.88268
 Alpha virt. eigenvalues --    1.89535   1.89821   1.91529   1.93559   1.94345
 Alpha virt. eigenvalues --    1.96364   1.97810   1.98888   2.00735   2.03585
 Alpha virt. eigenvalues --    2.04005   2.04859   2.07015   2.10194   2.12754
 Alpha virt. eigenvalues --    2.16796   2.19930   2.19945   2.22040   2.22713
 Alpha virt. eigenvalues --    2.24853   2.26420   2.27075   2.28671   2.31491
 Alpha virt. eigenvalues --    2.32180   2.32420   2.33760   2.35827   2.36336
 Alpha virt. eigenvalues --    2.36359   2.37202   2.37647   2.40741   2.40803
 Alpha virt. eigenvalues --    2.42423   2.42914   2.44797   2.46275   2.47124
 Alpha virt. eigenvalues --    2.48295   2.50466   2.52217   2.54409   2.56578
 Alpha virt. eigenvalues --    2.62159   2.62741   2.63353   2.65309   2.66597
 Alpha virt. eigenvalues --    2.66744   2.67670   2.70807   2.71946   2.72625
 Alpha virt. eigenvalues --    2.74106   2.75763   2.76158   2.77862   2.77974
 Alpha virt. eigenvalues --    2.78490   2.78534   2.79722   2.80000   2.81160
 Alpha virt. eigenvalues --    2.81646   2.83012   2.87123   2.87430   2.88154
 Alpha virt. eigenvalues --    2.88319   2.90639   2.91985   2.92001   2.93341
 Alpha virt. eigenvalues --    2.94775   2.95930   2.97398   2.98141   3.00424
 Alpha virt. eigenvalues --    3.01175   3.03591   3.04676   3.06497   3.10647
 Alpha virt. eigenvalues --    3.10699   3.13323   3.14288   3.15077   3.15337
 Alpha virt. eigenvalues --    3.18001   3.18034   3.19084   3.20634   3.20741
 Alpha virt. eigenvalues --    3.21987   3.23396   3.25367   3.25665   3.27700
 Alpha virt. eigenvalues --    3.28974   3.31001   3.31016   3.31265   3.32046
 Alpha virt. eigenvalues --    3.32783   3.33473   3.34550   3.34564   3.35158
 Alpha virt. eigenvalues --    3.35476   3.36207   3.37346   3.38027   3.39586
 Alpha virt. eigenvalues --    3.40280   3.42510   3.44826   3.44849   3.45310
 Alpha virt. eigenvalues --    3.48147   3.48456   3.50205   3.50541   3.51842
 Alpha virt. eigenvalues --    3.52145   3.52533   3.53577   3.54746   3.55444
 Alpha virt. eigenvalues --    3.57502   3.58575   3.58904   3.59549   3.59592
 Alpha virt. eigenvalues --    3.60251   3.60843   3.61842   3.62029   3.63747
 Alpha virt. eigenvalues --    3.64029   3.64057   3.65454   3.66082   3.66263
 Alpha virt. eigenvalues --    3.66903   3.67248   3.67836   3.69462   3.71347
 Alpha virt. eigenvalues --    3.71565   3.72790   3.73897   3.74749   3.76657
 Alpha virt. eigenvalues --    3.77792   3.78371   3.79315   3.79396   3.79656
 Alpha virt. eigenvalues --    3.79932   3.81064   3.82124   3.82503   3.85256
 Alpha virt. eigenvalues --    3.85491   3.88141   3.88586   3.89709   3.90962
 Alpha virt. eigenvalues --    3.92162   3.92789   3.95211   3.95575   3.97150
 Alpha virt. eigenvalues --    3.97188   3.97609   3.98715   4.00263   4.00766
 Alpha virt. eigenvalues --    4.01658   4.05641   4.10050   4.11004   4.11576
 Alpha virt. eigenvalues --    4.13486   4.17993   4.19066   4.21838   4.22218
 Alpha virt. eigenvalues --    4.26156   4.26304   4.29085   4.31359   4.35095
 Alpha virt. eigenvalues --    4.35716   4.42465   4.44257   4.54677   4.54961
 Alpha virt. eigenvalues --    4.55310   4.59681   4.60679   4.68107   4.70022
 Alpha virt. eigenvalues --    4.84471   4.84685   4.90341   4.92413   5.27392
 Alpha virt. eigenvalues --    5.30063   5.31016   5.33443   5.50423   5.64659
 Alpha virt. eigenvalues --    5.69310   5.88232   7.05035   7.15429   7.15866
 Alpha virt. eigenvalues --    7.17617   7.19515   7.24231   7.27593   7.44458
 Alpha virt. eigenvalues --    7.59897   7.61705  23.78008  23.79251  23.94330
 Alpha virt. eigenvalues --   23.99570  24.08787  24.09269  24.09470  24.12241
 Alpha virt. eigenvalues --   24.13838  24.15123  24.16759  24.19507  24.19821
 Alpha virt. eigenvalues --   24.21455  24.21895  24.28510  24.30095  50.21418
 Alpha virt. eigenvalues --   50.28501
          Condensed to atoms (all electrons):
               1          2          3          4          5          6
     1  C   10.218129   0.010866  -0.393986   0.374056  -0.384371  -0.032886
     2  C    0.010866   8.636786  -0.812307  -1.117012  -0.661524   0.015846
     3  C   -0.393986  -0.812307  11.019203  -1.389143   0.409661  -0.790005
     4  C    0.374056  -1.117012  -1.389143   8.109052   0.173556   0.337290
     5  C   -0.384371  -0.661524   0.409661   0.173556   5.725505   0.190893
     6  C   -0.032886   0.015846  -0.790005   0.337290   0.190893   7.084612
     7  C   -1.471823   0.388788  -2.458527  -0.733761   0.362034  -0.578694
     8  H   -0.025652  -0.125788  -0.025355  -0.000700   0.021503  -0.063600
     9  H    0.003488   0.013481  -0.007263   0.020691  -0.071638   0.425657
    10  H   -0.001907  -0.002788   0.021665  -0.072736   0.454907  -0.064642
    11  H    0.001628   0.035373  -0.059958   0.421534  -0.074440   0.011370
    12  H   -0.009763  -0.070493   0.468940  -0.047623   0.015282   0.001042
    13  O   -0.042247   0.040988  -0.076697   0.080554   0.003928  -0.014660
    14  C   -0.591721   0.009768  -0.191287  -0.095641   0.016465  -0.122796
    15  O    0.127309   0.004481  -0.013921  -0.004399  -0.001239   0.008310
    16  C   -2.715500  -0.448508   0.270104   0.178742   0.012806  -0.131804
    17  C   -0.448508  -0.397721   0.329853   0.061132  -0.025352  -0.126741
    18  C    0.452794  -0.490686  -0.039889  -0.099950   0.050480  -0.176563
    19  C   -0.131804  -0.126741   0.185272   0.065424  -0.018048  -0.001121
    20  C    0.012806  -0.025352  -0.010978  -0.010157   0.005885  -0.018048
    21  C    0.178742   0.061132   0.024420   0.027459  -0.010157   0.065424
    22  C    0.270104   0.329853  -0.118514   0.024420  -0.010978   0.185272
    23  H   -0.001676   0.004430   0.000587  -0.000053   0.000020  -0.000029
    24  H    0.000655  -0.000441  -0.000098  -0.000002  -0.000003  -0.000056
    25  H   -0.000209  -0.000071  -0.000023   0.000007   0.000003   0.000143
    26  H   -0.000043   0.001170   0.000185  -0.000014  -0.000027  -0.000176
    27  H    0.018079   0.000263  -0.012054  -0.005503   0.000692  -0.004863
    28  H    0.035058   0.037595  -0.063520   0.006104  -0.003069   0.009434
    29  C    0.508316  -0.024179  -0.119777  -0.013044  -0.012271   0.024174
    30  H   -0.018987   0.001486   0.001106  -0.001181   0.000152  -0.000307
    31  H    0.019873  -0.005177   0.001752   0.000486  -0.000044   0.000083
    32  H   -0.004538  -0.031379   0.013181   0.006438   0.000202  -0.000384
    33  C   -0.451307   0.091320   0.084092   0.004059   0.010676  -0.016699
    34  H   -0.007701  -0.004905   0.004087   0.000878  -0.000049   0.000072
    35  H    0.023019   0.023199  -0.001992  -0.000433   0.000148   0.000102
    36  H    0.002002   0.001977  -0.000242  -0.000060   0.000006  -0.000013
    37  H    0.442491  -0.143045  -0.026666   0.011678  -0.002379   0.006943
               7          8          9         10         11         12
     1  C   -1.471823  -0.025652   0.003488  -0.001907   0.001628  -0.009763
     2  C    0.388788  -0.125788   0.013481  -0.002788   0.035373  -0.070493
     3  C   -2.458527  -0.025355  -0.007263   0.021665  -0.059958   0.468940
     4  C   -0.733761  -0.000700   0.020691  -0.072736   0.421534  -0.047623
     5  C    0.362034   0.021503  -0.071638   0.454907  -0.074440   0.015282
     6  C   -0.578694  -0.063600   0.425657  -0.064642   0.011370   0.001042
     7  C   10.348730   0.556409  -0.036230   0.010835   0.009387  -0.004037
     8  H    0.556409   0.523201  -0.006886  -0.000261   0.000065  -0.000243
     9  H   -0.036230  -0.006886   0.540851  -0.006158  -0.000261   0.000063
    10  H    0.010835  -0.000261  -0.006158   0.541446  -0.006305  -0.000249
    11  H    0.009387   0.000065  -0.000261  -0.006305   0.542806  -0.006167
    12  H   -0.004037  -0.000243   0.000063  -0.000249  -0.006167   0.509793
    13  O    0.037502   0.000391   0.000020   0.000011  -0.000028  -0.001449
    14  C    0.042850   0.003084  -0.000059  -0.000043   0.000298  -0.005659
    15  O    0.010455  -0.000408  -0.000001   0.000001  -0.000004  -0.000924
    16  C    0.452794   0.018079  -0.000043  -0.000209   0.000655  -0.001676
    17  C   -0.490686   0.000263   0.001170  -0.000071  -0.000441   0.004430
    18  C    0.347138   0.011000  -0.001694   0.000028  -0.000147  -0.000134
    19  C   -0.176563  -0.004863  -0.000176   0.000143  -0.000056  -0.000029
    20  C    0.050480   0.000692  -0.000027   0.000003  -0.000003   0.000020
    21  C   -0.099950  -0.005503  -0.000014   0.000007  -0.000002  -0.000053
    22  C   -0.039889  -0.012054   0.000185  -0.000023  -0.000098   0.000587
    23  H   -0.000134   0.000004   0.000000  -0.000000  -0.000000   0.000001
    24  H   -0.000147   0.000000  -0.000000  -0.000000   0.000000  -0.000000
    25  H    0.000028   0.000001  -0.000000   0.000000  -0.000000  -0.000000
    26  H   -0.001694   0.000018   0.000002  -0.000000  -0.000000   0.000000
    27  H    0.011000  -0.000018   0.000018   0.000001   0.000000   0.000004
    28  H    0.031831  -0.000016   0.000000   0.000002   0.000003   0.000552
    29  C   -0.004662  -0.000041   0.000001  -0.000008   0.000022  -0.003536
    30  H   -0.001217   0.000000   0.000000   0.000000  -0.000000   0.000140
    31  H   -0.000191   0.000000  -0.000000   0.000000  -0.000000  -0.000026
    32  H   -0.005223  -0.000000   0.000000   0.000000   0.000001   0.000218
    33  C    0.052566   0.000457  -0.000004  -0.000003  -0.000018   0.001882
    34  H   -0.001858  -0.000000  -0.000000   0.000000  -0.000000   0.000003
    35  H    0.006362   0.000004   0.000000  -0.000000   0.000000  -0.000002
    36  H    0.000142  -0.000001  -0.000000  -0.000000   0.000000  -0.000000
    37  H    0.037284   0.006558  -0.000050  -0.000001   0.000018  -0.000296
              13         14         15         16         17         18
     1  C   -0.042247  -0.591721   0.127309  -2.715500  -0.448508   0.452794
     2  C    0.040988   0.009768   0.004481  -0.448508  -0.397721  -0.490686
     3  C   -0.076697  -0.191287  -0.013921   0.270104   0.329853  -0.039889
     4  C    0.080554  -0.095641  -0.004399   0.178742   0.061132  -0.099950
     5  C    0.003928   0.016465  -0.001239   0.012806  -0.025352   0.050480
     6  C   -0.014660  -0.122796   0.008310  -0.131804  -0.126741  -0.176563
     7  C    0.037502   0.042850   0.010455   0.452794  -0.490686   0.347138
     8  H    0.000391   0.003084  -0.000408   0.018079   0.000263   0.011000
     9  H    0.000020  -0.000059  -0.000001  -0.000043   0.001170  -0.001694
    10  H    0.000011  -0.000043   0.000001  -0.000209  -0.000071   0.000028
    11  H   -0.000028   0.000298  -0.000004   0.000655  -0.000441  -0.000147
    12  H   -0.001449  -0.005659  -0.000924  -0.001676   0.004430  -0.000134
    13  O    8.231231   0.289216  -0.052098   0.127309   0.004481   0.010455
    14  C    0.289216   8.668669   0.289216  -0.591721   0.009768   0.042850
    15  O   -0.052098   0.289216   8.231231  -0.042247   0.040988   0.037502
    16  C    0.127309  -0.591721  -0.042247  10.218129   0.010866  -1.471823
    17  C    0.004481   0.009768   0.040988   0.010866   8.636786   0.388788
    18  C    0.010455   0.042850   0.037502  -1.471823   0.388788  10.348730
    19  C    0.008310  -0.122796  -0.014660  -0.032886   0.015846  -0.578694
    20  C   -0.001239   0.016465   0.003928  -0.384371  -0.661524   0.362034
    21  C   -0.004399  -0.095641   0.080554   0.374056  -1.117012  -0.733761
    22  C   -0.013921  -0.191287  -0.076697  -0.393986  -0.812307  -2.458527
    23  H   -0.000924  -0.005659  -0.001449  -0.009763  -0.070493  -0.004037
    24  H   -0.000004   0.000298  -0.000028   0.001628   0.035373   0.009387
    25  H    0.000001  -0.000043   0.000011  -0.001907  -0.002788   0.010835
    26  H   -0.000001  -0.000059   0.000020   0.003488   0.013481  -0.036230
    27  H   -0.000408   0.003084   0.000391  -0.025652  -0.125788   0.556409
    28  H   -0.005910  -0.024418  -0.039440   0.442491  -0.143045   0.037284
    29  C   -0.317654  -0.678548  -0.036395  -0.451307   0.091320   0.052566
    30  H   -0.004699  -0.012016   0.007459   0.002002   0.001977   0.000142
    31  H    0.009646   0.001414  -0.002396  -0.007701  -0.004905  -0.001858
    32  H   -0.004924  -0.134203  -0.004663   0.023019   0.023199   0.006362
    33  C   -0.036395  -0.678548  -0.317654   0.508316  -0.024179  -0.004662
    34  H   -0.002396   0.001414   0.009646   0.019873  -0.005177  -0.000191
    35  H   -0.004663  -0.134203  -0.004924  -0.004538  -0.031379  -0.005223
    36  H    0.007459  -0.012016  -0.004699  -0.018987   0.001486  -0.001217
    37  H   -0.039440  -0.024418  -0.005910   0.035058   0.037595   0.031831
              19         20         21         22         23         24
     1  C   -0.131804   0.012806   0.178742   0.270104  -0.001676   0.000655
     2  C   -0.126741  -0.025352   0.061132   0.329853   0.004430  -0.000441
     3  C    0.185272  -0.010978   0.024420  -0.118514   0.000587  -0.000098
     4  C    0.065424  -0.010157   0.027459   0.024420  -0.000053  -0.000002
     5  C   -0.018048   0.005885  -0.010157  -0.010978   0.000020  -0.000003
     6  C   -0.001121  -0.018048   0.065424   0.185272  -0.000029  -0.000056
     7  C   -0.176563   0.050480  -0.099950  -0.039889  -0.000134  -0.000147
     8  H   -0.004863   0.000692  -0.005503  -0.012054   0.000004   0.000000
     9  H   -0.000176  -0.000027  -0.000014   0.000185   0.000000  -0.000000
    10  H    0.000143   0.000003   0.000007  -0.000023  -0.000000  -0.000000
    11  H   -0.000056  -0.000003  -0.000002  -0.000098  -0.000000   0.000000
    12  H   -0.000029   0.000020  -0.000053   0.000587   0.000001  -0.000000
    13  O    0.008310  -0.001239  -0.004399  -0.013921  -0.000924  -0.000004
    14  C   -0.122796   0.016465  -0.095641  -0.191287  -0.005659   0.000298
    15  O   -0.014660   0.003928   0.080554  -0.076697  -0.001449  -0.000028
    16  C   -0.032886  -0.384371   0.374056  -0.393986  -0.009763   0.001628
    17  C    0.015846  -0.661524  -1.117012  -0.812307  -0.070493   0.035373
    18  C   -0.578694   0.362034  -0.733761  -2.458527  -0.004037   0.009387
    19  C    7.084612   0.190893   0.337290  -0.790005   0.001042   0.011370
    20  C    0.190893   5.725505   0.173556   0.409661   0.015282  -0.074440
    21  C    0.337290   0.173556   8.109052  -1.389143  -0.047623   0.421534
    22  C   -0.790005   0.409661  -1.389143  11.019203   0.468940  -0.059958
    23  H    0.001042   0.015282  -0.047623   0.468940   0.509793  -0.006167
    24  H    0.011370  -0.074440   0.421534  -0.059958  -0.006167   0.542806
    25  H   -0.064642   0.454907  -0.072736   0.021665  -0.000249  -0.006305
    26  H    0.425657  -0.071638   0.020691  -0.007263   0.000063  -0.000261
    27  H   -0.063600   0.021503  -0.000700  -0.025355  -0.000243   0.000065
    28  H    0.006943  -0.002379   0.011678  -0.026666  -0.000296   0.000018
    29  C   -0.016699   0.010676   0.004059   0.084092   0.001882  -0.000018
    30  H   -0.000013   0.000006  -0.000060  -0.000242  -0.000000   0.000000
    31  H    0.000072  -0.000049   0.000878   0.004087   0.000003  -0.000000
    32  H    0.000102   0.000148  -0.000433  -0.001992  -0.000002   0.000000
    33  C    0.024174  -0.012271  -0.013044  -0.119777  -0.003536   0.000022
    34  H    0.000083  -0.000044   0.000486   0.001752  -0.000026  -0.000000
    35  H   -0.000384   0.000202   0.006438   0.013181   0.000218   0.000001
    36  H   -0.000307   0.000152  -0.001181   0.001106   0.000140  -0.000000
    37  H    0.009434  -0.003069   0.006104  -0.063520   0.000552   0.000003
              25         26         27         28         29         30
     1  C   -0.000209  -0.000043   0.018079   0.035058   0.508316  -0.018987
     2  C   -0.000071   0.001170   0.000263   0.037595  -0.024179   0.001486
     3  C   -0.000023   0.000185  -0.012054  -0.063520  -0.119777   0.001106
     4  C    0.000007  -0.000014  -0.005503   0.006104  -0.013044  -0.001181
     5  C    0.000003  -0.000027   0.000692  -0.003069  -0.012271   0.000152
     6  C    0.000143  -0.000176  -0.004863   0.009434   0.024174  -0.000307
     7  C    0.000028  -0.001694   0.011000   0.031831  -0.004662  -0.001217
     8  H    0.000001   0.000018  -0.000018  -0.000016  -0.000041   0.000000
     9  H   -0.000000   0.000002   0.000018   0.000000   0.000001   0.000000
    10  H    0.000000  -0.000000   0.000001   0.000002  -0.000008   0.000000
    11  H   -0.000000  -0.000000   0.000000   0.000003   0.000022  -0.000000
    12  H   -0.000000   0.000000   0.000004   0.000552  -0.003536   0.000140
    13  O    0.000001  -0.000001  -0.000408  -0.005910  -0.317654  -0.004699
    14  C   -0.000043  -0.000059   0.003084  -0.024418  -0.678548  -0.012016
    15  O    0.000011   0.000020   0.000391  -0.039440  -0.036395   0.007459
    16  C   -0.001907   0.003488  -0.025652   0.442491  -0.451307   0.002002
    17  C   -0.002788   0.013481  -0.125788  -0.143045   0.091320   0.001977
    18  C    0.010835  -0.036230   0.556409   0.037284   0.052566   0.000142
    19  C   -0.064642   0.425657  -0.063600   0.006943  -0.016699  -0.000013
    20  C    0.454907  -0.071638   0.021503  -0.002379   0.010676   0.000006
    21  C   -0.072736   0.020691  -0.000700   0.011678   0.004059  -0.000060
    22  C    0.021665  -0.007263  -0.025355  -0.026666   0.084092  -0.000242
    23  H   -0.000249   0.000063  -0.000243  -0.000296   0.001882  -0.000000
    24  H   -0.006305  -0.000261   0.000065   0.000018  -0.000018   0.000000
    25  H    0.541446  -0.006158  -0.000261  -0.000001  -0.000003  -0.000000
    26  H   -0.006158   0.540851  -0.006886  -0.000050  -0.000004  -0.000000
    27  H   -0.000261  -0.006886   0.523201   0.006558   0.000457  -0.000001
    28  H   -0.000001  -0.000050   0.006558   0.544442   0.027776  -0.000250
    29  C   -0.000003  -0.000004   0.000457   0.027776   7.955418   0.402140
    30  H   -0.000000  -0.000000  -0.000001  -0.000250   0.402140   0.494223
    31  H    0.000000  -0.000000  -0.000000  -0.000008   0.350647  -0.025698
    32  H   -0.000000   0.000000   0.000004   0.001180   0.484878  -0.024945
    33  C   -0.000008   0.000001  -0.000041  -0.019234  -1.823434  -0.002988
    34  H    0.000000  -0.000000   0.000000   0.000081   0.006151   0.000701
    35  H    0.000000   0.000000  -0.000000  -0.000055  -0.010701  -0.000063
    36  H    0.000000   0.000000   0.000000   0.000016  -0.002988   0.000388
    37  H    0.000002   0.000000  -0.000016   0.004820  -0.019234   0.000016
              31         32         33         34         35         36
     1  C    0.019873  -0.004538  -0.451307  -0.007701   0.023019   0.002002
     2  C   -0.005177  -0.031379   0.091320  -0.004905   0.023199   0.001977
     3  C    0.001752   0.013181   0.084092   0.004087  -0.001992  -0.000242
     4  C    0.000486   0.006438   0.004059   0.000878  -0.000433  -0.000060
     5  C   -0.000044   0.000202   0.010676  -0.000049   0.000148   0.000006
     6  C    0.000083  -0.000384  -0.016699   0.000072   0.000102  -0.000013
     7  C   -0.000191  -0.005223   0.052566  -0.001858   0.006362   0.000142
     8  H    0.000000  -0.000000   0.000457  -0.000000   0.000004  -0.000001
     9  H   -0.000000   0.000000  -0.000004  -0.000000   0.000000  -0.000000
    10  H    0.000000   0.000000  -0.000003   0.000000  -0.000000  -0.000000
    11  H   -0.000000   0.000001  -0.000018  -0.000000   0.000000   0.000000
    12  H   -0.000026   0.000218   0.001882   0.000003  -0.000002  -0.000000
    13  O    0.009646  -0.004924  -0.036395  -0.002396  -0.004663   0.007459
    14  C    0.001414  -0.134203  -0.678548   0.001414  -0.134203  -0.012016
    15  O   -0.002396  -0.004663  -0.317654   0.009646  -0.004924  -0.004699
    16  C   -0.007701   0.023019   0.508316   0.019873  -0.004538  -0.018987
    17  C   -0.004905   0.023199  -0.024179  -0.005177  -0.031379   0.001486
    18  C   -0.001858   0.006362  -0.004662  -0.000191  -0.005223  -0.001217
    19  C    0.000072   0.000102   0.024174   0.000083  -0.000384  -0.000307
    20  C   -0.000049   0.000148  -0.012271  -0.000044   0.000202   0.000152
    21  C    0.000878  -0.000433  -0.013044   0.000486   0.006438  -0.001181
    22  C    0.004087  -0.001992  -0.119777   0.001752   0.013181   0.001106
    23  H    0.000003  -0.000002  -0.003536  -0.000026   0.000218   0.000140
    24  H   -0.000000   0.000000   0.000022  -0.000000   0.000001  -0.000000
    25  H    0.000000  -0.000000  -0.000008   0.000000   0.000000   0.000000
    26  H   -0.000000   0.000000   0.000001  -0.000000   0.000000   0.000000
    27  H   -0.000000   0.000004  -0.000041   0.000000  -0.000000   0.000000
    28  H   -0.000008   0.001180  -0.019234   0.000081  -0.000055   0.000016
    29  C    0.350647   0.484878  -1.823434   0.006151  -0.010701  -0.002988
    30  H   -0.025698  -0.024945  -0.002988   0.000701  -0.000063   0.000388
    31  H    0.501558  -0.022369   0.006151   0.000793   0.000136   0.000701
    32  H   -0.022369   0.508404  -0.010701   0.000136  -0.000349  -0.000063
    33  C    0.006151  -0.010701   7.955418   0.350647   0.484878   0.402140
    34  H    0.000793   0.000136   0.350647   0.501558  -0.022369  -0.025698
    35  H    0.000136  -0.000349   0.484878  -0.022369   0.508404  -0.024945
    36  H    0.000701  -0.000063   0.402140  -0.025698  -0.024945   0.494223
    37  H    0.000081  -0.000055   0.027776  -0.000008   0.001180  -0.000250
              37
     1  C    0.442491
     2  C   -0.143045
     3  C   -0.026666
     4  C    0.011678
     5  C   -0.002379
     6  C    0.006943
     7  C    0.037284
     8  H    0.006558
     9  H   -0.000050
    10  H   -0.000001
    11  H    0.000018
    12  H   -0.000296
    13  O   -0.039440
    14  C   -0.024418
    15  O   -0.005910
    16  C    0.035058
    17  C    0.037595
    18  C    0.031831
    19  C    0.009434
    20  C   -0.003069
    21  C    0.006104
    22  C   -0.063520
    23  H    0.000552
    24  H    0.000003
    25  H    0.000002
    26  H    0.000000
    27  H   -0.000016
    28  H    0.004820
    29  C   -0.019234
    30  H    0.000016
    31  H    0.000081
    32  H   -0.000055
    33  C    0.027776
    34  H   -0.000008
    35  H    0.001180
    36  H   -0.000250
    37  H    0.544442
 Mulliken charges:
               1
     1  C    0.035211
     2  C    0.779316
     3  C   -0.221903
     4  C   -0.312147
     5  C   -0.179215
     6  C   -0.222576
     7  C   -0.651328
     8  H    0.129660
     9  H    0.124877
    10  H    0.126357
    11  H    0.124767
    12  H    0.149402
    13  O   -0.227345
    14  C    0.317924
    15  O   -0.227345
    16  C    0.035211
    17  C    0.779316
    18  C   -0.651328
    19  C   -0.222576
    20  C   -0.179215
    21  C   -0.312147
    22  C   -0.221903
    23  H    0.149402
    24  H    0.124767
    25  H    0.126357
    26  H    0.124877
    27  H    0.129660
    28  H    0.124489
    29  C   -0.470069
    30  H    0.180729
    31  H    0.172063
    32  H    0.178748
    33  C   -0.470069
    34  H    0.172063
    35  H    0.178748
    36  H    0.180729
    37  H    0.124489
 Sum of Mulliken charges =  -0.00000
 Mulliken charges with hydrogens summed into heavy atoms:
               1
     1  C    0.159701
     2  C    0.779316
     3  C   -0.072502
     4  C   -0.187380
     5  C   -0.052858
     6  C   -0.097699
     7  C   -0.521667
    13  O   -0.227345
    14  C    0.317924
    15  O   -0.227345
    16  C    0.159701
    17  C    0.779316
    18  C   -0.521667
    19  C   -0.097699
    20  C   -0.052858
    21  C   -0.187380
    22  C   -0.072502
    29  C    0.061471
    33  C    0.061471
 Electronic spatial extent (au):  <R**2>=           5200.7439
 Charge=             -0.0000 electrons
 Dipole moment (field-independent basis, Debye):
    X=              0.0000    Y=              0.0000    Z=             -0.6827  Tot=              0.6827
 Quadrupole moment (field-independent basis, Debye-Ang):
   XX=           -114.3333   YY=           -107.3075   ZZ=           -100.2583
   XY=              8.0896   XZ=             -0.0000   YZ=              0.0000
 Traceless Quadrupole moment (field-independent basis, Debye-Ang):
   XX=             -7.0336   YY=             -0.0078   ZZ=              7.0414
   XY=              8.0896   XZ=             -0.0000   YZ=              0.0000
 Octapole moment (field-independent basis, Debye-Ang**2):
  XXX=             -0.0000  YYY=              0.0000  ZZZ=             23.5087  XYY=              0.0000
  XXY=              0.0000  XXZ=              3.9417  XZZ=              0.0000  YZZ=             -0.0000
  YYZ=            -21.8409  XYZ=             13.3613
 Hexadecapole moment (field-independent basis, Debye-Ang**3):
 XXXX=           -674.1433 YYYY=          -3137.6551 ZZZZ=          -2902.0958 XXXY=            286.5988
 XXXZ=             -0.0000 YYYX=            365.4395 YYYZ=             -0.0000 ZZZX=              0.0000
 ZZZY=             -0.0000 XXYY=           -736.9429 XXZZ=           -613.9451 YYZZ=           -990.9497
 XXYZ=             -0.0000 YYXZ=             -0.0000 ZZXY=             46.8877
 N-N= 1.408479783071D+03 E-N=-4.699183742023D+03  KE= 8.044858791264D+02
 Symmetry A    KE= 4.191783505924D+02
 Symmetry B    KE= 3.853075285340D+02
 1\1\GINC-WEBMO\SP\RPBE1PBE\6-311+G(2d,p)\C17H18O2\WEBMO\22-Mar-2022\0\
 \#N PBE1PBE/6-311+G(2d,p) NMR SCRF=(PCM,Solvent=chloroform) Geom=Conne
 ctivity\\acetal of hydrobenzoin C2\\0,1\C\C,1,1.505932414\C,2,1.402275
 106,1,121.1895708\C,3,1.396515966,2,120.3714164,1,177.3650524,0\C,4,1.
 398381597,3,120.2744576,2,-0.26337451,0\C,5,1.397383693,4,119.6448095,
 3,0.38629081,0\C,6,1.39710374,5,120.0667756,4,-0.00626127,0\H,7,1.0934
 01772,6,119.9141807,5,179.5836968,0\H,6,1.092336429,5,120.1454271,4,17
 9.5077893,0\H,5,1.092288594,4,120.1795212,3,179.8880144,0\H,4,1.092545
 3,3,119.7326755,2,179.4699372,0\H,3,1.091789955,2,119.1313911,7,178.41
 67703,0\O,1,1.430396199,2,111.1989151,3,33.70286285,0\C,13,1.444132582
 ,1,107.8941369,2,-154.3611608,0\O,14,1.444132582,13,106.3546562,1,13.0
 1068332,0\C,1,1.55206115,2,115.2337491,3,-81.12525276,0\C,16,1.5059324
 14,1,115.2337491,2,-81.42717523,0\C,17,1.401635184,16,119.7177763,1,96
 .4615939,0\C,18,1.39710374,17,120.5897489,16,-177.0191795,0\C,19,1.397
 383693,18,120.0667756,17,-0.50073437,0\C,20,1.398381597,19,119.6448095
 ,18,-0.00626127,0\C,21,1.396515966,20,120.2744576,19,0.38629081,0\H,22
 ,1.091789955,21,120.4833736,20,-178.8994283,0\H,21,1.0925453,20,119.99
 23295,19,-179.346326,0\H,20,1.092288594,19,120.1737863,18,-179.5080138
 ,0\H,19,1.092336429,18,119.7860203,17,179.9834607,0\H,18,1.093401772,1
 7,119.496017,16,2.89674017,0\H,16,1.10816849,1,108.1722205,2,41.757738
 99,0\C,14,1.524540783,15,110.7122077,16,-103.9359875,0\H,29,1.09949186
 1,14,110.1421491,15,174.2008098,0\H,29,1.099085626,14,110.2290726,15,-
 65.70605406,0\H,29,1.098675968,14,110.0568897,15,54.39509506,0\C,14,1.
 524540783,15,107.8865459,16,131.8278317,0\H,33,1.099085626,14,110.2290
 726,15,178.2948655,0\H,33,1.098675968,14,110.0568897,15,-61.60398542,0
 \H,33,1.099491861,14,110.1421491,15,58.20172935,0\H,1,1.10816849,2,109
 .7223753,3,156.5165309,0\\Version=EM64L-G16RevB.01\State=1-A\HF=-808.3
 791599\RMSD=3.913e-09\Dipole=-0.1597146,0.1127848,0.1841662\Quadrupole
 =4.0737565,-6.3845906,2.3108341,-2.1719654,0.3229582,5.2324044\PG=C02 
 [C2(C1),X(C16H18O2)]\\@


 A people that values its privileges above its principles soon loses both.
 -- Dwight D. Eisenhower
 Job cpu time:       0 days  1 hours  0 minutes 18.9 seconds.
 Elapsed time:       0 days  0 hours  4 minutes  2.2 seconds.
 File lengths (MBytes):  RWF=    342 Int=      0 D2E=      0 Chk=     32 Scr=      1
 Normal termination of Gaussian 16 at Tue Mar 22 09:39:21 2022.
