 Entering Gaussian System, Link 0=/usr/local/g16.b01/g16/g16
 Initial command:
 /usr/local/g16.b01/g16/l1.exe "/scratch/webmo-2626/88/Gau-12519.inp" -scrdir="/scratch/webmo-2626/88/"
 Entering Link 1 = /usr/local/g16.b01/g16/l1.exe PID=     12521.
  
 Copyright (c) 1988-2017, Gaussian, Inc.  All Rights Reserved.
  
 This is part of the Gaussian(R) 16 program.  It is based on
 the Gaussian(R) 09 system (copyright 2009, Gaussian, Inc.),
 the Gaussian(R) 03 system (copyright 2003, Gaussian, Inc.),
 the Gaussian(R) 98 system (copyright 1998, Gaussian, Inc.),
 the Gaussian(R) 94 system (copyright 1995, Gaussian, Inc.),
 the Gaussian 92(TM) system (copyright 1992, Gaussian, Inc.),
 the Gaussian 90(TM) system (copyright 1990, Gaussian, Inc.),
 the Gaussian 88(TM) system (copyright 1988, Gaussian, Inc.),
 the Gaussian 86(TM) system (copyright 1986, Carnegie Mellon
 University), and the Gaussian 82(TM) system (copyright 1983,
 Carnegie Mellon University). Gaussian is a federally registered
 trademark of Gaussian, Inc.
  
 This software contains proprietary and confidential information,
 including trade secrets, belonging to Gaussian, Inc.
  
 This software is provided under written license and may be
 used, copied, transmitted, or stored only in accord with that
 written license.
  
 The following legend is applicable only to US Government
 contracts under FAR:
  
                    RESTRICTED RIGHTS LEGEND
  
 Use, reproduction and disclosure by the US Government is
 subject to restrictions as set forth in subparagraphs (a)
 and (c) of the Commercial Computer Software - Restricted
 Rights clause in FAR 52.227-19.
  
 Gaussian, Inc.
 340 Quinnipiac St., Bldg. 40, Wallingford CT 06492
  
  
 ---------------------------------------------------------------
 Warning -- This program may not be used in any manner that
 competes with the business of Gaussian, Inc. or will provide
 assistance to any competitor of Gaussian, Inc.  The licensee
 of this program is prohibited from giving any competitor of
 Gaussian, Inc. access to this program.  By using this program,
 the user acknowledges that Gaussian, Inc. is engaged in the
 business of creating and licensing software in the field of
 computational chemistry and represents and warrants to the
 licensee that it is not a competitor of Gaussian, Inc. and that
 it will not use this program in any manner prohibited above.
 ---------------------------------------------------------------
  

 Cite this work as:
 Gaussian 16, Revision B.01,
 M. J. Frisch, G. W. Trucks, H. B. Schlegel, G. E. Scuseria, 
 M. A. Robb, J. R. Cheeseman, G. Scalmani, V. Barone, 
 G. A. Petersson, H. Nakatsuji, X. Li, M. Caricato, A. V. Marenich, 
 J. Bloino, B. G. Janesko, R. Gomperts, B. Mennucci, H. P. Hratchian, 
 J. V. Ortiz, A. F. Izmaylov, J. L. Sonnenberg, D. Williams-Young, 
 F. Ding, F. Lipparini, F. Egidi, J. Goings, B. Peng, A. Petrone, 
 T. Henderson, D. Ranasinghe, V. G. Zakrzewski, J. Gao, N. Rega, 
 G. Zheng, W. Liang, M. Hada, M. Ehara, K. Toyota, R. Fukuda, 
 J. Hasegawa, M. Ishida, T. Nakajima, Y. Honda, O. Kitao, H. Nakai, 
 T. Vreven, K. Throssell, J. A. Montgomery, Jr., J. E. Peralta, 
 F. Ogliaro, M. J. Bearpark, J. J. Heyd, E. N. Brothers, K. N. Kudin, 
 V. N. Staroverov, T. A. Keith, R. Kobayashi, J. Normand, 
 K. Raghavachari, A. P. Rendell, J. C. Burant, S. S. Iyengar, 
 J. Tomasi, M. Cossi, J. M. Millam, M. Klene, C. Adamo, R. Cammi, 
 J. W. Ochterski, R. L. Martin, K. Morokuma, O. Farkas, 
 J. B. Foresman, and D. J. Fox, Gaussian, Inc., Wallingford CT, 2016.
 
 ******************************************
 Gaussian 16:  EM64L-G16RevB.01 20-Dec-2017
                21-Mar-2022 
 ******************************************
 %NProcShared=16
 Will use up to   16 processors via shared memory.
 %Mem=32GB
 ----------------------------------------------------------------------
 #N PBE1PBE/6-311+G(2d,p) NMR SCRF=(PCM,Solvent=chloroform) Geom=Connec
 tivity
 ----------------------------------------------------------------------
 1/38=1,57=2,172=1/1;
 2/12=2,17=6,18=5,40=1/2;
 3/5=4,6=6,7=112,11=2,25=1,30=1,70=2201,72=7,74=-13/1,2,3,8;
 4//1;
 5/5=2,38=5,53=7/2;
 8/6=1,10=90,11=11/1;
 10/13=100,45=16/2;
 6/7=2,8=2,9=2,10=2,28=1/1;
 99/9=1/99;
 ----------------------
 acetal of hydrobenzoin
 ----------------------
 Symbolic Z-matrix:
 Charge =  0 Multiplicity = 1
 C
 C                    1    B1
 C                    2    B2       1    A1
 C                    3    B3       2    A2       1    D1       0
 C                    4    B4       3    A3       2    D2       0
 C                    5    B5       4    A4       3    D3       0
 C                    6    B6       5    A5       4    D4       0
 H                    7    B7       6    A6       5    D5       0
 H                    6    B8       5    A7       4    D6       0
 H                    5    B9       4    A8       3    D7       0
 H                    4    B10      3    A9       2    D8       0
 H                    3    B11      2    A10      7    D9       0
 O                    1    B12      2    A11      3    D10      0
 C                    13   B13      1    A12      2    D11      0
 O                    14   B14      13   A13      1    D12      0
 C                    1    B15      2    A14      3    D13      0
 C                    16   B16      1    A15      2    D14      0
 C                    17   B17      16   A16      1    D15      0
 C                    18   B18      17   A17      16   D16      0
 C                    19   B19      18   A18      17   D17      0
 C                    20   B20      19   A19      18   D18      0
 C                    21   B21      20   A20      19   D19      0
 H                    22   B22      21   A21      20   D20      0
 H                    21   B23      20   A22      19   D21      0
 H                    20   B24      19   A23      18   D22      0
 H                    19   B25      18   A24      17   D23      0
 H                    18   B26      17   A25      16   D24      0
 H                    16   B27      1    A26      2    D25      0
 C                    14   B28      15   A27      16   D26      0
 H                    29   B29      14   A28      15   D27      0
 H                    29   B30      14   A29      15   D28      0
 H                    29   B31      14   A30      15   D29      0
 C                    14   B32      15   A31      16   D30      0
 H                    33   B33      14   A32      15   D31      0
 H                    33   B34      14   A33      15   D32      0
 H                    33   B35      14   A34      15   D33      0
 H                    1    B36      2    A35      3    D34      0
       Variables:
  B1                    1.5147                   
  B2                    1.40252                  
  B3                    1.39578                  
  B4                    1.39816                  
  B5                    1.39716                  
  B6                    1.39765                  
  B7                    1.09096                  
  B8                    1.09268                  
  B9                    1.09229                  
  B10                   1.09242                  
  B11                   1.09395                  
  B12                   1.43202                  
  B13                   1.44587                  
  B14                   1.42911                  
  B15                   1.57919                  
  B16                   1.50543                  
  B17                   1.4013                   
  B18                   1.3972                   
  B19                   1.39702                  
  B20                   1.39839                  
  B21                   1.39594                  
  B22                   1.09093                  
  B23                   1.09242                  
  B24                   1.09229                  
  B25                   1.09237                  
  B26                   1.09428                  
  B27                   1.10729                  
  B28                   1.53241                  
  B29                   1.099                    
  B30                   1.09947                  
  B31                   1.09885                  
  B32                   1.5201                   
  B33                   1.09852                  
  B34                   1.09777                  
  B35                   1.09889                  
  B36                   1.10514                  
  A1                  119.37872                  
  A2                  120.78233                  
  A3                  120.05055                  
  A4                  119.53034                  
  A5                  120.29364                  
  A6                  120.41161                  
  A7                  120.00526                  
  A8                  120.19673                  
  A9                  119.82398                  
  A10                 119.59983                  
  A11                 111.42522                  
  A12                 109.57205                  
  A13                 105.24686                  
  A14                 116.4128                   
  A15                 117.69379                  
  A16                 119.38264                  
  A17                 120.73452                  
  A18                 119.92676                  
  A19                 119.64234                  
  A20                 120.37032                  
  A21                 120.42229                  
  A22                 119.96967                  
  A23                 120.1654                   
  A24                 119.87237                  
  A25                 119.503                    
  A26                 107.204                    
  A27                 111.67898                  
  A28                 109.74246                  
  A29                 110.2875                   
  A30                 111.2219                   
  A31                 108.42985                  
  A32                 109.91888                  
  A33                 109.99005                  
  A34                 110.18393                  
  A35                 108.30823                  
  D1                  178.49094                  
  D2                    0.5601                   
  D3                    0.24007                  
  D4                   -0.47414                  
  D5                  178.58452                  
  D6                  179.1762                   
  D7                  179.61737                  
  D8                 -179.86671                  
  D9                  179.01455                  
  D10                 154.88093                  
  D11                 123.79914                  
  D12                 -19.82235                  
  D13                 -87.14095                  
  D14                  22.48373                  
  D15                  96.12669                  
  D16                -178.21652                  
  D17                  -0.78921                  
  D18                   0.00287                  
  D19                   0.58446                  
  D20                -179.80473                  
  D21                -179.53639                  
  D22                -179.51436                  
  D23                 179.954                    
  D24                   2.18281                  
  D25                 144.5891                   
  D26                 -83.59125                  
  D27                 176.64172                  
  D28                 -63.40041                  
  D29                  57.26618                  
  D30                 152.18749                  
  D31                -174.20994                  
  D32                 -54.01504                  
  D33                  66.01209                  
  D34                  34.86303                  
 
                          Input orientation:                          
 ---------------------------------------------------------------------
 Center     Atomic      Atomic             Coordinates (Angstroms)
 Number     Number       Type             X           Y           Z
 ---------------------------------------------------------------------
      1          6           0        0.000000    0.000000    0.000000
      2          6           0        0.000000    0.000000    1.514703
      3          6           0        1.222147    0.000000    2.202750
      4          6           0        1.256541    0.031579    3.597747
      5          6           0        0.063940    0.051904    4.327232
      6          6           0       -1.157968    0.035271    3.649934
      7          6           0       -1.189369    0.008561    2.252889
      8          1           0       -2.142032   -0.027697    1.722502
      9          1           0       -2.094662    0.037354    4.212565
     10          1           0        0.088039    0.070324    5.419100
     11          1           0        2.217323    0.033302    4.117624
     12          1           0        2.159499   -0.022995    1.639215
     13          8           0       -1.206987   -0.565884   -0.523096
     14          6           0       -1.845150    0.385249   -1.405493
     15          8           0       -1.293170    1.655099   -1.051739
     16          6           0        0.070546    1.412580   -0.702479
     17          6           0        0.638252    2.560183    0.089379
     18          6           0        1.988393    2.901579   -0.066247
     19          6           0        2.553779    3.937482    0.681689
     20          6           0        1.765925    4.655635    1.584571
     21          6           0        0.413857    4.331048    1.733070
     22          6           0       -0.146814    3.287855    0.994127
     23          1           0       -1.202251    3.035972    1.106967
     24          1           0       -0.208950    4.894075    2.431998
     25          1           0        2.201992    5.471407    2.165478
     26          1           0        3.608016    4.191291    0.549609
     27          1           0        2.603192    2.353678   -0.786850
     28          1           0        0.678185    1.291957   -1.620261
     29          6           0       -1.541585    0.022253   -2.863014
     30          1           0       -1.927276   -0.982988   -3.083297
     31          1           0       -2.018225    0.743188   -3.542643
     32          1           0       -0.459669    0.019399   -3.055168
     33          6           0       -3.337446    0.412832   -1.117417
     34          1           0       -3.769039   -0.583702   -1.282910
     35          1           0       -3.513165    0.712809   -0.076147
     36          1           0       -3.838928    1.129054   -1.783079
     37          1           0        0.860890   -0.599740   -0.347157
 ---------------------------------------------------------------------
                    Distance matrix (angstroms):
                    1          2          3          4          5
     1  C    0.000000
     2  C    1.514703   0.000000
     3  C    2.519078   1.402517   0.000000
     4  C    3.810994   2.432892   1.395778   0.000000
     5  C    4.328016   2.813734   2.420240   1.398163   0.000000
     6  C    3.829380   2.429268   2.785774   2.415076   1.397165
     7  C    2.547584   1.399854   2.412053   2.791353   2.423956
     8  H    2.748833   2.152266   3.398398   3.882056   3.414274
     9  H    4.704753   3.415766   3.878398   3.407139   2.161694
    10  H    5.420271   3.906022   3.411166   2.164307   1.092289
    11  H    4.676800   3.419477   2.158292   1.092418   2.163641
    12  H    2.711271   2.163208   1.093951   2.157350   3.409166
    13  O    1.432017   2.435091   3.694747   4.838107   5.051990
    14  C    2.351256   3.475708   4.751437   5.897286   6.051436
    15  O    2.348999   3.316364   4.433720   5.545680   5.774540
    16  C    1.579188   2.629877   3.429566   4.669656   5.210516
    17  C    2.640055   2.998909   3.370728   4.368611   4.957893
    18  C    3.518132   3.856458   3.762265   4.711406   5.579141
    19  C    4.742389   4.766494   4.426131   5.044036   5.881072
    20  C    5.225351   4.979790   4.727872   5.068948   5.622569
    21  C    4.683246   4.356253   4.430791   4.761572   5.016293
    22  C    3.437998   3.332048   3.760959   4.399042   4.650310
    23  H    3.447884   3.290711   4.036778   4.612594   4.569246
    24  H    5.469026   4.983679   5.104171   5.210614   5.207014
    25  H    6.282862   5.933681   5.558577   5.704121   6.214133
    26  H    5.557587   5.613921   5.098251   5.667784   6.630643
    27  H    3.596602   4.196851   4.047813   5.141041   6.156281
    28  H    2.180443   3.457902   4.071911   5.399134   6.106366
    29  C    3.251743   4.641270   5.770674   7.040670   7.367376
    30  H    3.766613   5.081561   6.231166   7.470099   7.742860
    31  H    4.144379   5.495663   6.637912   7.887689   8.169958
    32  H    3.089615   4.592973   5.520379   6.870721   7.401017
    33  C    3.543670   4.270484   5.655425   6.594152   6.429922
    34  H    4.023956   4.730011   6.115757   7.032485   6.824179
    35  H    3.585558   3.921891   5.303268   6.059016   5.711587
    36  H    4.380811   5.185316   6.540343   7.491432   7.329975
    37  H    1.105141   2.137134   2.644280   4.014644   4.786406
                    6          7          8          9         10
     6  C    0.000000
     7  C    1.397652   0.000000
     8  H    2.165026   1.090959   0.000000
     9  H    1.092681   2.158868   2.491363   0.000000
    10  H    2.164188   3.414744   4.318293   2.494192   0.000000
    11  H    3.407540   3.883736   4.974365   4.313032   2.495809
    12  H    3.879687   3.404778   4.302340   4.972289   4.311286
    13  O    4.216393   2.834853   2.491318   4.855754   6.114863
    14  C    5.113906   3.735733   3.169072   5.634346   7.100103
    15  O    4.974721   3.693566   3.353921   5.565284   6.803749
    16  C    4.727549   3.506117   3.584750   5.544098   6.267031
    17  C    4.720078   3.812053   4.134512   5.552850   5.908304
    18  C    5.650248   4.883248   5.370353   6.571403   6.458821
    19  C    6.149374   5.649447   6.233505   7.020405   6.593774
    20  C    5.844881   5.547586   6.101209   6.568029   6.208380
    21  C    4.959708   4.639444   5.052855   5.556651   5.643292
    22  C    4.319148   3.664037   3.937551   4.971740   5.476133
    23  H    3.933554   3.237054   3.263148   4.408270   5.390214
    24  H    5.098233   4.986135   5.335169   5.505821   5.681509
    25  H    6.560832   6.430525   7.021888   7.223623   6.650304
    26  H    7.042664   6.588725   7.227627   7.949400   7.285914
    27  H    6.261500   5.396583   5.872389   7.240810   7.074851
    28  H    5.720635   4.487333   4.568279   6.579100   7.168909
    29  C    6.524249   5.128032   4.624932   7.097178   8.441054
    30  H    6.853107   5.477459   4.904529   7.368766   8.801233
    31  H    7.278347   5.900412   5.322719   7.787637   9.230489
    32  H    6.741384   5.357989   5.065441   7.449393   8.492102
    33  C    5.255502   4.017043   3.112591   5.485818   7.387645
    34  H    5.615493   4.416713   3.462484   5.778364   7.760267
    35  H    4.459786   3.364581   2.379810   4.567433   6.601454
    36  H    6.156422   4.956280   4.062835   6.338929   8.271237
    37  H    4.522804   3.366575   3.691647   5.471035   5.856278
                   11         12         13         14         15
    11  H    0.000000
    12  H    2.479722   0.000000
    13  O    5.798380   4.037765   0.000000
    14  C    6.865302   5.047190   1.445867   0.000000
    15  O    6.455703   4.688087   2.284657   1.429106   0.000000
    16  C    5.453847   3.450816   2.361903   2.284629   1.428468
    17  C    5.010524   3.374759   3.681348   3.623847   2.419032
    18  C    5.077813   3.389839   4.737347   4.777191   3.646034
    19  C    5.211667   4.093617   5.989589   6.027045   4.797193
    20  C    5.290187   4.695473   6.367474   6.341652   5.031045
    21  C    5.235380   4.691884   5.630042   5.524765   4.222536
    22  C    5.092886   4.086190   4.275188   4.131301   2.857550
    23  H    5.456516   4.576235   3.953541   3.708383   2.564193
    24  H    5.688167   5.515037   6.288069   6.142719   4.878824
    25  H    5.777897   5.519712   7.436293   7.416212   6.093509
    26  H    5.652754   4.587554   6.853150   6.931479   5.746147
    27  H    5.439384   3.425088   4.807377   4.903589   3.967344
    28  H    6.072600   3.814128   2.865173   2.689882   2.083586
    29  C    7.928355   5.828390   2.435791   1.532412   2.451247
    30  H    8.370412   6.318657   2.692103   2.166528   3.389516
    31  H    8.781998   6.700154   3.389607   2.173818   2.749889
    32  H    7.656071   5.375785   2.704150   2.185139   2.717345
    33  C    7.642327   6.164849   2.418669   1.520097   2.393033
    34  H    8.085975   6.633308   2.672404   2.157600   3.345982
    35  H    7.133579   5.971850   2.674561   2.157945   2.601551
    36  H    8.526262   7.001460   3.374535   2.161242   2.700457
    37  H    4.709025   2.442272   2.075624   3.068050   3.196984
                   16         17         18         19         20
    16  C    0.000000
    17  C    1.505431   0.000000
    18  C    2.509989   1.401303   0.000000
    19  C    3.802302   2.432494   1.397199   0.000000
    20  C    4.315358   2.810368   2.418968   1.397016   0.000000
    21  C    3.816703   2.426528   2.785694   2.416519   1.398391
    22  C    2.538183   1.401572   2.415101   2.795145   2.424462
    23  H    2.743994   2.156226   3.402161   3.886045   3.414892
    24  H    4.692960   3.413600   3.878090   3.407539   2.162202
    25  H    5.407616   3.902653   3.410314   2.162940   1.092287
    26  H    4.669331   3.419331   2.160050   1.092373   2.163345
    27  H    2.703161   2.161345   1.094277   2.160436   3.409349
    28  H    1.107294   2.129052   2.592776   3.976887   4.771631
    29  C    3.033132   4.461995   5.345387   6.683258   7.224186
    30  H    3.924071   5.403875   6.286884   7.646306   8.198951
    31  H    3.588535   4.852826   5.726864   6.996551   7.477658
    32  H    2.785180   4.189175   4.820126   6.196478   6.926408
    33  C    3.575763   4.676927   5.971882   7.096934   7.165648
    34  H    4.366286   5.584926   6.839260   8.017405   8.143030
    35  H    3.704721   4.546917   5.920976   6.912355   6.795046
    36  H    4.065965   5.059582   6.328272   7.404665   7.429147
    37  H    2.190965   3.197693   3.689092   4.950836   5.671827
                   21         22         23         24         25
    21  C    0.000000
    22  C    1.395938   0.000000
    23  H    2.163570   1.090929   0.000000
    24  H    1.092422   2.156682   2.488956   0.000000
    25  H    2.164445   3.414213   4.317483   2.493388   0.000000
    26  H    3.409218   3.887485   4.978361   4.313528   2.495322
    27  H    3.879843   3.406919   4.305051   4.972197   4.312475
    28  H    4.533297   3.391056   3.743714   5.493912   5.841371
    29  C    6.596473   5.242812   4.995838   7.317631   8.306225
    30  H    7.544354   6.167295   5.851154   8.240812   9.287610
    31  H    6.827951   5.528091   5.248003   7.496644   8.529299
    32  H    6.502353   5.213202   5.193698   7.343999   8.003997
    33  C    6.127803   4.785865   4.048184   6.516699   8.188525
    34  H    7.123730   5.770127   5.040034   7.515372   9.176543
    35  H    5.637945   4.371346   3.483844   5.889959   7.767378
    36  H    6.379832   5.099510   4.352099   6.717068   8.422580
    37  H    5.370275   4.234135   4.425994   6.249020   6.706020
                   26         27         28         29         30
    26  H    0.000000
    27  H    2.484475   0.000000
    28  H    4.658153   2.351059   0.000000
    29  C    7.452869   5.188947   2.843231   0.000000
    30  H    8.403013   6.077183   3.755566   1.098996   0.000000
    31  H    7.764698   5.616545   3.356684   1.099467   1.788561
    32  H    6.851654   4.469367   2.230039   1.098851   1.777482
    33  C    8.080543   6.258381   4.141377   2.534715   2.793130
    34  H    8.976616   7.034174   4.838357   2.797403   2.606321
    35  H    7.950008   6.372392   4.504122   3.482905   3.799174
    36  H    8.383061   6.632729   4.522981   2.769306   3.131405
    37  H    5.595075   3.457112   2.287507   3.533879   3.925202
                   31         32         33         34         35
    31  H    0.000000
    32  H    1.786225   0.000000
    33  C    2.780503   3.491600   0.000000
    34  H    3.151567   3.802178   1.098518   0.000000
    35  H    3.775230   4.321946   1.097773   1.789606   0.000000
    36  H    2.561233   3.777424   1.098892   1.785661   1.786896
    37  H    4.505984   3.075798   4.386870   4.723572   4.574777
                   36         37
    36  H    0.000000
    37  H    5.209500   0.000000
 Stoichiometry    C17H18O2
 Framework group  C1[X(C17H18O2)]
 Deg. of freedom   105
 Full point group                 C1      NOp   1
 Largest Abelian subgroup         C1      NOp   1
 Largest concise Abelian subgroup C1      NOp   1
                         Standard orientation:                         
 ---------------------------------------------------------------------
 Center     Atomic      Atomic             Coordinates (Angstroms)
 Number     Number       Type             X           Y           Z
 ---------------------------------------------------------------------
      1          6           0        0.939167    0.400606   -1.054522
      2          6           0       -0.093167    1.410311   -0.597238
      3          6           0       -1.277783    1.564142   -1.332135
      4          6           0       -2.262531    2.463289   -0.919822
      5          6           0       -2.070244    3.232742    0.231624
      6          6           0       -0.885794    3.097700    0.960261
      7          6           0        0.096460    2.193021    0.547750
      8          1           0        1.031727    2.102542    1.102079
      9          1           0       -0.721642    3.704914    1.853736
     10          1           0       -2.836593    3.941634    0.552990
     11          1           0       -3.180234    2.568996   -1.502938
     12          1           0       -1.432527    0.970851   -2.238109
     13          8           0        2.250816    0.750454   -0.598611
     14          6           0        2.808518   -0.346707    0.160162
     15          8           0        1.686924   -1.140570    0.552784
     16          6           0        0.756730   -1.077527   -0.529475
     17          6           0       -0.619012   -1.497399   -0.085220
     18          6           0       -1.453400   -2.177698   -0.982238
     19          6           0       -2.748831   -2.547807   -0.612044
     20          6           0       -3.217973   -2.253905    0.670602
     21          6           0       -2.384976   -1.589683    1.576374
     22          6           0       -1.095236   -1.209635    1.201173
     23          1           0       -0.443546   -0.694239    1.908133
     24          1           0       -2.743690   -1.363935    2.583225
     25          1           0       -4.227236   -2.548470    0.966762
     26          1           0       -3.387550   -3.077082   -1.322808
     27          1           0       -1.081862   -2.426523   -1.980981
     28          1           0        1.079341   -1.756146   -1.342800
     29          6           0        3.783410   -1.139023   -0.717396
     30          1           0        4.600539   -0.483537   -1.049706
     31          1           0        4.209350   -1.979602   -0.150978
     32          1           0        3.282059   -1.534955   -1.611464
     33          6           0        3.473958    0.198151    1.413563
     34          1           0        4.276805    0.895492    1.138075
     35          1           0        2.735548    0.725373    2.031538
     36          1           0        3.906995   -0.623612    2.000716
     37          1           0        0.934825    0.375757   -2.159375
 ---------------------------------------------------------------------
 Rotational constants (GHZ):           0.4758893           0.3596413           0.2508737
 Standard basis: 6-311+G(2d,p) (5D, 7F)
 There are   659 symmetry adapted cartesian basis functions of A   symmetry.
 There are   621 symmetry adapted basis functions of A   symmetry.
   621 basis functions,   942 primitive gaussians,   659 cartesian basis functions
    68 alpha electrons       68 beta electrons
       nuclear repulsion energy      1436.9116772437 Hartrees.
 NAtoms=   37 NActive=   37 NUniq=   37 SFac= 1.00D+00 NAtFMM=   60 NAOKFM=F Big=F
 Integral buffers will be    131072 words long.
 Raffenetti 2 integral format.
 Two-electron integral symmetry is turned on.
 ------------------------------------------------------------------------------
 Polarizable Continuum Model (PCM)
 =================================
 Model                : PCM.
 Atomic radii         : UFF (Universal Force Field).
 Polarization charges : Total charges.
 Charge compensation  : None.
 Solution method      : On-the-fly selection.
 Cavity type          : Scaled VdW (van der Waals Surface) (Alpha=1.100).
 Cavity algorithm     : GePol (No added spheres)
                        Default sphere list used, NSphG=   37.
                        Lebedev-Laikov grids with approx.  5.0 points / Ang**2.
                        Smoothing algorithm: York/Karplus (Gamma=1.0000).
                        Polarization charges: spherical gaussians, with
                                              point-specific exponents (IZeta= 3).
                        Self-potential: point-specific (ISelfS= 7).
                        Self-field    : sphere-specific E.n sum rule (ISelfD= 2).
 Solvent              : Chloroform, Eps=   4.711300 Eps(inf)=   2.090627
 ------------------------------------------------------------------------------
 One-electron integrals computed using PRISM.
 NBasis=   621 RedAO= T EigKep=  1.10D-06  NBF=   621
 NBsUse=   620 1.00D-06 EigRej=  6.32D-07 NBFU=   620
 ExpMin= 4.38D-02 ExpMax= 8.59D+03 ExpMxC= 1.30D+03 IAcc=3 IRadAn=         5 AccDes= 0.00D+00
 Harris functional with IExCor= 1009 and IRadAn=       5 diagonalized for initial guess.
 HarFok:  IExCor= 1009 AccDes= 0.00D+00 IRadAn=         5 IDoV= 1 UseB2=F ITyADJ=14
 ICtDFT=  3500011 ScaDFX=  1.000000  1.000000  1.000000  1.000000
 FoFCou: FMM=F IPFlag=           0 FMFlag=      100000 FMFlg1=           0
         NFxFlg=           0 DoJE=T BraDBF=F KetDBF=T FulRan=T
         wScrn=  0.000000 ICntrl=       500 IOpCl=  0 I1Cent=   200000004 NGrid=           0
         NMat0=    1 NMatS0=      1 NMatT0=    0 NMatD0=    1 NMtDS0=    0 NMtDT0=    0
 Petite list used in FoFCou.
 Requested convergence on RMS density matrix=1.00D-08 within 128 cycles.
 Requested convergence on MAX density matrix=1.00D-06.
 Requested convergence on             energy=1.00D-06.
 No special actions if energy rises.
 Inv3:  Mode=1 IEnd=    20358075.
 Iteration    1 A*A^-1 deviation from unit magnitude is 7.77D-15 for   1310.
 Iteration    1 A*A^-1 deviation from orthogonality  is 4.77D-15 for   1943    568.
 Iteration    1 A^-1*A deviation from unit magnitude is 8.33D-15 for   1310.
 Iteration    1 A^-1*A deviation from orthogonality  is 7.33D-15 for   2587   1035.
 Error on total polarization charges =  0.01455
 SCF Done:  E(RPBE1PBE) =  -808.374640547     A.U. after   13 cycles
            NFock= 13  Conv=0.83D-08     -V/T= 2.0048
 DoSCS=F DFT=T ScalE2(SS,OS)=  1.000000  1.000000
 Range of M.O.s used for correlation:     1   620
 NBasis=   621 NAE=    68 NBE=    68 NFC=     0 NFV=     0
 NROrb=    620 NOA=    68 NOB=    68 NVA=   552 NVB=   552

 **** Warning!!: The largest alpha MO coefficient is  0.16125944D+03

 NEqPCM:  Using equilibrium solvation (IEInf=0, Eps=   4.7113, EpsInf=   2.0906)
          Differentiating once with respect to magnetic field using GIAOs.
          Electric field/nuclear overlap derivatives assumed to be zero.
 FoFJK:  IHMeth= 1 ICntrl=    6127 DoSepK=F KAlg= 0 I1Cent=           0 FoldK=F
 IRaf=         1 NMat=       1 IRICut=       1 DoRegI=T DoRafI=F ISym2E= 0 IDoP0=0 IntGTp=1.
          There are     3 degrees of freedom in the 1st order CPHF.  IDoFFX=0 NUNeed=     3.
      3 vectors produced by pass  0 Test12= 1.25D-12 3.33D-08 XBig12= 3.13D+02 3.98D+00.
 AX will form     3 AO Fock derivatives at one time.
      3 vectors produced by pass  1 Test12= 1.25D-12 3.33D-08 XBig12= 7.19D-01 2.34D-01.
      3 vectors produced by pass  2 Test12= 1.25D-12 3.33D-08 XBig12= 4.07D-03 1.85D-02.
      3 vectors produced by pass  3 Test12= 1.25D-12 3.33D-08 XBig12= 1.55D-05 8.24D-04.
      3 vectors produced by pass  4 Test12= 1.25D-12 3.33D-08 XBig12= 4.79D-08 3.23D-05.
      3 vectors produced by pass  5 Test12= 1.25D-12 3.33D-08 XBig12= 2.13D-10 2.22D-06.
      3 vectors produced by pass  6 Test12= 1.25D-12 3.33D-08 XBig12= 6.69D-13 1.21D-07.
 InvSVY:  IOpt=1 It=  1 EMax= 1.78D-15
 Solved reduced A of dimension    21 with     3 vectors.
 Calculating GIAO nuclear magnetic shielding tensors.
 SCF GIAO Magnetic shielding tensor (ppm):
      1  C    Isotropic =    99.5967   Anisotropy =    54.3237
   XX=   129.4474   YX=    11.1578   ZX=    15.3646
   XY=     7.6033   YY=    89.1035   ZY=    -0.8250
   XZ=    15.6167   YZ=     3.6558   ZZ=    80.2392
   Eigenvalues:    75.6400    87.3376   135.8125
      2  C    Isotropic =    40.2604   Anisotropy =   193.5447
   XX=     7.2369   YX=    83.6548   ZX=   -21.0509
   XY=    81.4532   YY=    66.6664   ZY=   -69.0602
   XZ=   -23.0599   YZ=   -78.5575   ZZ=    46.8779
   Eigenvalues:   -58.5858    10.0768   169.2902
      3  C    Isotropic =    54.8527   Anisotropy =   179.1746
   XX=    68.7342   YX=    25.3012   ZX=   -42.5895
   XY=    45.0970   YY=    81.6158   ZY=   -91.3936
   XZ=   -48.6080   YZ=   -91.4154   ZZ=    14.2081
   Eigenvalues:   -52.3305    42.5862   174.3025
      4  C    Isotropic =    54.5598   Anisotropy =   186.2465
   XX=    -3.7176   YX=    48.8323   ZX=   -76.2661
   XY=    50.6052   YY=   112.2710   ZY=   -49.2696
   XZ=   -75.2888   YZ=   -49.0529   ZZ=    55.1262
   Eigenvalues:   -56.8376    41.7929   178.7242
      5  C    Isotropic =    55.1616   Anisotropy =   184.7381
   XX=    17.4192   YX=    85.8613   ZX=   -11.5937
   XY=    81.8387   YY=    74.4867   ZY=   -72.1870
   XZ=   -10.0917   YZ=   -74.6880   ZZ=    73.5789
   Eigenvalues:   -53.6827    40.8472   178.3203
      6  C    Isotropic =    54.3032   Anisotropy =   185.8195
   XX=    64.5742   YX=    32.9482   ZX=   -42.0763
   XY=    35.5218   YY=    81.7882   ZY=   -97.7461
   XZ=   -44.9918   YZ=   -99.4209   ZZ=    16.5471
   Eigenvalues:   -56.8256    41.5522   178.1829
      7  C    Isotropic =    55.5478   Anisotropy =   190.4833
   XX=     0.5278   YX=    42.7678   ZX=   -73.7994
   XY=    53.6674   YY=   106.0935   ZY=   -58.4491
   XZ=   -81.2693   YZ=   -51.4338   ZZ=    60.0221
   Eigenvalues:   -53.3502    37.4569   182.5367
      8  H    Isotropic =    23.5240   Anisotropy =    10.7889
   XX=    22.8009   YX=    -4.0317   ZX=    -1.6490
   XY=    -2.3600   YY=    25.8813   ZY=     5.4968
   XZ=    -1.8162   YZ=     4.0487   ZZ=    21.8897
   Eigenvalues:    18.6745    21.1809    30.7165
      9  H    Isotropic =    23.8634   Anisotropy =     5.6368
   XX=    25.7127   YX=    -2.8690   ZX=     0.7879
   XY=    -2.4085   YY=    23.9354   ZY=     1.9166
   XZ=     0.7490   YZ=     1.1074   ZZ=    21.9422
   Eigenvalues:    20.3092    23.6598    27.6213
     10  H    Isotropic =    24.1383   Anisotropy =     3.8256
   XX=    24.2334   YX=    -0.9907   ZX=     2.0874
   XY=    -1.0363   YY=    23.8147   ZY=     2.1402
   XZ=     2.3432   YZ=     1.4705   ZZ=    24.3668
   Eigenvalues:    20.7659    24.9603    26.6887
     11  H    Isotropic =    24.3582   Anisotropy =     5.2295
   XX=    23.6696   YX=    -2.8078   ZX=     0.1841
   XY=    -2.5346   YY=    25.3819   ZY=     1.8024
   XZ=     0.2703   YZ=     1.8767   ZZ=    24.0230
   Eigenvalues:    21.1076    24.1224    27.8445
     12  H    Isotropic =    24.7719   Anisotropy =     8.3903
   XX=    26.0806   YX=    -3.7970   ZX=     2.5882
   XY=    -3.0154   YY=    24.9108   ZY=    -3.1605
   XZ=     1.7529   YZ=    -1.4682   ZZ=    23.3242
   Eigenvalues:    21.6313    22.3189    30.3654
     13  O    Isotropic =   197.1711   Anisotropy =   108.2643
   XX=   214.8316   YX=     2.4067   ZX=    31.4404
   XY=     8.1249   YY=   238.9566   ZY=   -63.1625
   XZ=    10.9015   YZ=   -62.3763   ZZ=   137.7252
   Eigenvalues:   103.5960   218.5701   269.3473
     14  C    Isotropic =    71.5784   Anisotropy =    43.0292
   XX=    68.2487   YX=     9.8777   ZX=     4.7047
   XY=     6.8518   YY=    87.8834   ZY=   -20.4002
   XZ=    -2.3706   YZ=   -21.4083   ZZ=    58.6030
   Eigenvalues:    46.5677    67.9029   100.2645
     15  O    Isotropic =   193.6323   Anisotropy =   107.1909
   XX=   235.4266   YX=    42.6428   ZX=    -7.0326
   XY=    18.6524   YY=   188.5307   ZY=   -68.5650
   XZ=     0.6260   YZ=   -63.9660   ZZ=   156.9398
   Eigenvalues:   102.4921   213.3119   265.0930
     16  C    Isotropic =    99.5201   Anisotropy =    56.6470
   XX=   111.4523   YX=     2.1179   ZX=    31.7822
   XY=     7.4844   YY=    90.2984   ZY=    -9.8912
   XZ=    32.7285   YZ=    -8.1712   ZZ=    96.8096
   Eigenvalues:    66.7534    94.5221   137.2848
     17  C    Isotropic =    43.8715   Anisotropy =   191.2166
   XX=   -29.1140   YX=   -67.7868   ZX=    36.2642
   XY=   -62.1720   YY=   130.2013   ZY=   -41.1135
   XZ=    36.3921   YZ=   -39.1852   ZZ=    30.5274
   Eigenvalues:   -57.8803    18.1457   171.3493
     18  C    Isotropic =    53.7274   Anisotropy =   172.0088
   XX=    54.5705   YX=   -26.4914   ZX=    43.4931
   XY=   -39.8829   YY=   129.2409   ZY=   -60.9060
   XZ=    51.2022   YZ=   -53.6335   ZZ=   -22.6291
   Eigenvalues:   -53.8813    46.6636   168.4000
     19  C    Isotropic =    54.4746   Anisotropy =   185.0529
   XX=    23.8792   YX=   -68.7168   ZX=   -21.3367
   XY=   -69.9165   YY=   123.7634   ZY=   -69.4597
   XZ=   -21.2895   YZ=   -70.3840   ZZ=    15.7812
   Eigenvalues:   -55.6902    41.2708   177.8432
     20  C    Isotropic =    54.2205   Anisotropy =   186.2486
   XX=   -26.4907   YX=   -66.1439   ZX=    38.7874
   XY=   -62.5309   YY=   141.7314   ZY=   -32.3028
   XZ=    36.6310   YZ=   -34.3537   ZZ=    47.4209
   Eigenvalues:   -54.9639    39.2392   178.3863
     21  C    Isotropic =    53.9407   Anisotropy =   188.4032
   XX=    46.8521   YX=   -34.0616   ZX=    45.6048
   XY=   -36.4383   YY=   142.8363   ZY=   -61.7752
   XZ=    44.9126   YZ=   -59.0775   ZZ=   -27.8664
   Eigenvalues:   -58.1845    40.4638   179.5428
     22  C    Isotropic =    54.2718   Anisotropy =   195.1531
   XX=    25.7368   YX=   -64.2423   ZX=   -16.2338
   XY=   -78.6006   YY=   128.7515   ZY=   -71.8227
   XZ=   -14.8502   YZ=   -70.1651   ZZ=     8.3272
   Eigenvalues:   -54.6426    33.0842   184.3739
     23  H    Isotropic =    24.3048   Anisotropy =     9.4600
   XX=    25.6440   YX=     2.1377   ZX=    -5.3422
   XY=    -0.0586   YY=    21.7611   ZY=    -2.1937
   XZ=    -3.6653   YZ=    -1.8525   ZZ=    25.5094
   Eigenvalues:    20.4555    21.8476    30.6115
     24  H    Isotropic =    24.2587   Anisotropy =     6.0490
   XX=    26.4103   YX=     3.1821   ZX=    -0.5313
   XY=     3.1560   YY=    22.7155   ZY=    -0.2004
   XZ=    -0.5626   YZ=    -0.0169   ZZ=    23.6502
   Eigenvalues:    20.8831    23.6016    28.2913
     25  H    Isotropic =    24.0939   Anisotropy =     3.9034
   XX=    23.7800   YX=     1.7584   ZX=    -0.0644
   XY=     2.0468   YY=    22.6567   ZY=     1.8936
   XZ=    -0.4616   YZ=     1.4929   ZZ=    25.8449
   Eigenvalues:    20.7698    24.8157    26.6962
     26  H    Isotropic =    23.9390   Anisotropy =     4.7567
   XX=    25.5971   YX=     1.7147   ZX=    -1.8773
   XY=     1.6184   YY=    22.0319   ZY=     1.2445
   XZ=    -1.9852   YZ=     0.5755   ZZ=    24.1879
   Eigenvalues:    20.6163    24.0905    27.1101
     27  H    Isotropic =    23.9271   Anisotropy =     8.5759
   XX=    26.5768   YX=     3.6876   ZX=     1.5776
   XY=     3.3606   YY=    23.6069   ZY=     2.9927
   XZ=     1.2462   YZ=     1.4347   ZZ=    21.5977
   Eigenvalues:    20.0329    22.1041    29.6444
     28  H    Isotropic =    25.5984   Anisotropy =     8.1915
   XX=    26.2559   YX=     1.9510   ZX=     1.9319
   XY=     0.4688   YY=    24.8708   ZY=     5.2631
   XZ=     1.6819   YZ=     4.3565   ZZ=    25.6687
   Eigenvalues:    20.4226    25.3133    31.0594
     29  C    Isotropic =   162.9938   Anisotropy =    39.9397
   XX=   158.9584   YX=   -17.4648   ZX=   -15.4738
   XY=   -15.7451   YY=   170.7103   ZY=     4.9258
   XZ=   -16.2469   YZ=     7.5074   ZZ=   159.3128
   Eigenvalues:   140.7988   158.5624   189.6203
     30  H    Isotropic =    30.0818   Anisotropy =     8.5024
   XX=    33.6234   YX=     1.8537   ZX=    -3.1058
   XY=     1.2310   YY=    27.8272   ZY=     0.3578
   XZ=    -3.9902   YZ=    -0.5209   ZZ=    28.7948
   Eigenvalues:    26.5276    27.9678    35.7501
     31  H    Isotropic =    30.2695   Anisotropy =     9.5949
   XX=    30.6118   YX=    -4.7572   ZX=     1.1781
   XY=    -5.1894   YY=    32.3251   ZY=    -1.5540
   XZ=     0.5811   YZ=     0.0220   ZZ=    27.8717
   Eigenvalues:    26.3980    27.7445    36.6661
     32  H    Isotropic =    29.4580   Anisotropy =     7.6933
   XX=    30.1263   YX=    -1.4854   ZX=    -1.5103
   XY=    -0.8512   YY=    26.7892   ZY=     5.0577
   XZ=     0.6382   YZ=     4.3298   ZZ=    31.4586
   Eigenvalues:    23.7882    29.9990    34.5869
     33  C    Isotropic =   159.8257   Anisotropy =    42.4169
   XX=   154.9923   YX=     4.5145   ZX=    13.3203
   XY=     1.5076   YY=   149.3409   ZY=    16.8011
   XZ=    10.4438   YZ=    17.6268   ZZ=   175.1441
   Eigenvalues:   140.1358   151.2377   188.1037
     34  H    Isotropic =    29.7200   Anisotropy =     8.5773
   XX=    32.4300   YX=     3.8627   ZX=     0.7616
   XY=     4.0116   YY=    29.0300   ZY=     1.1308
   XZ=     1.5780   YZ=     1.8547   ZZ=    27.7000
   Eigenvalues:    26.1367    27.5850    35.4382
     35  H    Isotropic =    29.6621   Anisotropy =     7.6691
   XX=    29.2704   YX=    -1.2484   ZX=     0.2595
   XY=    -2.6352   YY=    27.7654   ZY=     3.8411
   XZ=    -0.8572   YZ=     4.3764   ZZ=    31.9506
   Eigenvalues:    24.7329    29.4787    34.7749
     36  H    Isotropic =    29.7788   Anisotropy =     8.8380
   XX=    29.3173   YX=    -2.2395   ZX=     3.6188
   XY=    -2.2451   YY=    28.2729   ZY=    -1.4479
   XZ=     4.1648   YZ=    -2.1860   ZZ=    31.7461
   Eigenvalues:    26.0491    27.6164    35.6708
     37  H    Isotropic =    25.9107   Anisotropy =     7.0643
   XX=    26.2375   YX=    -2.2408   ZX=     2.6480
   XY=     0.2860   YY=    21.6846   ZY=    -0.6046
   XZ=     1.0776   YZ=     0.6319   ZZ=    29.8100
   Eigenvalues:    21.4640    25.6479    30.6202
 End of Minotr F.D. properties file   721 does not exist.
 End of Minotr F.D. properties file   722 does not exist.
 End of Minotr F.D. properties file   788 does not exist.

 **********************************************************************

            Population analysis using the SCF Density.

 **********************************************************************

 Orbital symmetries:
       Occupied  (A) (A) (A) (A) (A) (A) (A) (A) (A) (A) (A) (A)
                 (A) (A) (A) (A) (A) (A) (A) (A) (A) (A) (A) (A)
                 (A) (A) (A) (A) (A) (A) (A) (A) (A) (A) (A) (A)
                 (A) (A) (A) (A) (A) (A) (A) (A) (A) (A) (A) (A)
                 (A) (A) (A) (A) (A) (A) (A) (A) (A) (A) (A) (A)
                 (A) (A) (A) (A) (A) (A) (A) (A)
       Virtual   (A) (A) (A) (A) (A) (A) (A) (A) (A) (A) (A) (A)
                 (A) (A) (A) (A) (A) (A) (A) (A) (A) (A) (A) (A)
                 (A) (A) (A) (A) (A) (A) (A) (A) (A) (A) (A) (A)
                 (A) (A) (A) (A) (A) (A) (A) (A) (A) (A) (A) (A)
                 (A) (A) (A) (A) (A) (A) (A) (A) (A) (A) (A) (A)
                 (A) (A) (A) (A) (A) (A) (A) (A) (A) (A) (A) (A)
                 (A) (A) (A) (A) (A) (A) (A) (A) (A) (A) (A) (A)
                 (A) (A) (A) (A) (A) (A) (A) (A) (A) (A) (A) (A)
                 (A) (A) (A) (A) (A) (A) (A) (A) (A) (A) (A) (A)
                 (A) (A) (A) (A) (A) (A) (A) (A) (A) (A) (A) (A)
                 (A) (A) (A) (A) (A) (A) (A) (A) (A) (A) (A) (A)
                 (A) (A) (A) (A) (A) (A) (A) (A) (A) (A) (A) (A)
                 (A) (A) (A) (A) (A) (A) (A) (A) (A) (A) (A) (A)
                 (A) (A) (A) (A) (A) (A) (A) (A) (A) (A) (A) (A)
                 (A) (A) (A) (A) (A) (A) (A) (A) (A) (A) (A) (A)
                 (A) (A) (A) (A) (A) (A) (A) (A) (A) (A) (A) (A)
                 (A) (A) (A) (A) (A) (A) (A) (A) (A) (A) (A) (A)
                 (A) (A) (A) (A) (A) (A) (A) (A) (A) (A) (A) (A)
                 (A) (A) (A) (A) (A) (A) (A) (A) (A) (A) (A) (A)
                 (A) (A) (A) (A) (A) (A) (A) (A) (A) (A) (A) (A)
                 (A) (A) (A) (A) (A) (A) (A) (A) (A) (A) (A) (A)
                 (A) (A) (A) (A) (A) (A) (A) (A) (A) (A) (A) (A)
                 (A) (A) (A) (A) (A) (A) (A) (A) (A) (A) (A) (A)
                 (A) (A) (A) (A) (A) (A) (A) (A) (A) (A) (A) (A)
                 (A) (A) (A) (A) (A) (A) (A) (A) (A) (A) (A) (A)
                 (A) (A) (A) (A) (A) (A) (A) (A) (A) (A) (A) (A)
                 (A) (A) (A) (A) (A) (A) (A) (A) (A) (A) (A) (A)
                 (A) (A) (A) (A) (A) (A) (A) (A) (A) (A) (A) (A)
                 (A) (A) (A) (A) (A) (A) (A) (A) (A) (A) (A) (A)
                 (A) (A) (A) (A) (A) (A) (A) (A) (A) (A) (A) (A)
                 (A) (A) (A) (A) (A) (A) (A) (A) (A) (A) (A) (A)
                 (A) (A) (A) (A) (A) (A) (A) (A) (A) (A) (A) (A)
                 (A) (A) (A) (A) (A) (A) (A) (A) (A) (A) (A) (A)
                 (A) (A) (A) (A) (A) (A) (A) (A) (A) (A) (A) (A)
                 (A) (A) (A) (A) (A) (A) (A) (A) (A) (A) (A) (A)
                 (A) (A) (A) (A) (A) (A) (A) (A) (A) (A) (A) (A)
                 (A) (A) (A) (A) (A) (A) (A) (A) (A) (A) (A) (A)
                 (A) (A) (A) (A) (A) (A) (A) (A) (A) (A) (A) (A)
                 (A) (A) (A) (A) (A) (A) (A) (A) (A) (A) (A) (A)
                 (A) (A) (A) (A) (A) (A) (A) (A) (A) (A) (A) (A)
                 (A) (A) (A) (A) (A) (A) (A) (A) (A) (A) (A) (A)
                 (A) (A) (A) (A) (A) (A) (A) (A) (A) (A) (A) (A)
                 (A) (A) (A) (A) (A) (A) (A) (A) (A) (A) (A) (A)
                 (A) (A) (A) (A) (A) (A) (A) (A) (A) (A) (A) (A)
                 (A) (A) (A) (A) (A) (A) (A) (A) (A) (A) (A) (A)
                 (A) (A) (A) (A) (A) (A) (A) (A) (A) (A) (A) (A)
 The electronic state is 1-A.
 Alpha  occ. eigenvalues --  -19.22562 -19.21901 -10.33614 -10.29293 -10.29113
 Alpha  occ. eigenvalues --  -10.24272 -10.23851 -10.23392 -10.23266 -10.23185
 Alpha  occ. eigenvalues --  -10.23128 -10.23083 -10.23027 -10.23023 -10.23015
 Alpha  occ. eigenvalues --  -10.22912 -10.22784 -10.21616 -10.21561  -1.12479
 Alpha  occ. eigenvalues --   -1.03216  -0.89355  -0.88437  -0.83838  -0.78585
 Alpha  occ. eigenvalues --   -0.78266  -0.77316  -0.77056  -0.72910  -0.71543
 Alpha  occ. eigenvalues --   -0.67194  -0.63403  -0.62688  -0.61648  -0.60017
 Alpha  occ. eigenvalues --   -0.59668  -0.54642  -0.53604  -0.51967  -0.50574
 Alpha  occ. eigenvalues --   -0.49356  -0.48150  -0.47079  -0.46452  -0.45501
 Alpha  occ. eigenvalues --   -0.45153  -0.43839  -0.43538  -0.43222  -0.42794
 Alpha  occ. eigenvalues --   -0.41126  -0.40558  -0.40290  -0.39108  -0.38362
 Alpha  occ. eigenvalues --   -0.38191  -0.37022  -0.36671  -0.36049  -0.35598
 Alpha  occ. eigenvalues --   -0.35285  -0.35041  -0.29721  -0.28657  -0.27213
 Alpha  occ. eigenvalues --   -0.26729  -0.26286  -0.25782
 Alpha virt. eigenvalues --   -0.02173  -0.01784  -0.01353  -0.00806   0.00558
 Alpha virt. eigenvalues --    0.01804   0.01955   0.02506   0.03760   0.03885
 Alpha virt. eigenvalues --    0.04099   0.04500   0.05274   0.05879   0.05926
 Alpha virt. eigenvalues --    0.06241   0.06471   0.06996   0.07101   0.07690
 Alpha virt. eigenvalues --    0.08412   0.08640   0.09016   0.09210   0.09478
 Alpha virt. eigenvalues --    0.10450   0.10742   0.11431   0.12088   0.12196
 Alpha virt. eigenvalues --    0.12246   0.12669   0.12889   0.12938   0.13177
 Alpha virt. eigenvalues --    0.13514   0.13859   0.14169   0.14864   0.15411
 Alpha virt. eigenvalues --    0.15881   0.16129   0.16322   0.16985   0.17256
 Alpha virt. eigenvalues --    0.17267   0.17693   0.17972   0.18277   0.18438
 Alpha virt. eigenvalues --    0.18695   0.19219   0.19773   0.19899   0.20063
 Alpha virt. eigenvalues --    0.20341   0.20695   0.20847   0.21269   0.21590
 Alpha virt. eigenvalues --    0.21657   0.21868   0.22234   0.22496   0.22726
 Alpha virt. eigenvalues --    0.22828   0.23468   0.23661   0.24047   0.24274
 Alpha virt. eigenvalues --    0.24439   0.24753   0.24827   0.25106   0.25568
 Alpha virt. eigenvalues --    0.25840   0.26149   0.26721   0.26912   0.27139
 Alpha virt. eigenvalues --    0.27338   0.27694   0.28176   0.28531   0.28788
 Alpha virt. eigenvalues --    0.29230   0.29404   0.29621   0.29750   0.30492
 Alpha virt. eigenvalues --    0.30699   0.30922   0.31456   0.32119   0.32386
 Alpha virt. eigenvalues --    0.32915   0.33136   0.33886   0.34609   0.34763
 Alpha virt. eigenvalues --    0.35675   0.36147   0.36307   0.36711   0.37827
 Alpha virt. eigenvalues --    0.38172   0.38694   0.39040   0.39295   0.40080
 Alpha virt. eigenvalues --    0.42458   0.43334   0.44049   0.44568   0.46004
 Alpha virt. eigenvalues --    0.47030   0.47588   0.48304   0.49063   0.49434
 Alpha virt. eigenvalues --    0.50607   0.50744   0.51174   0.51892   0.52605
 Alpha virt. eigenvalues --    0.52798   0.53173   0.53629   0.54164   0.54355
 Alpha virt. eigenvalues --    0.54632   0.55318   0.55560   0.56143   0.56941
 Alpha virt. eigenvalues --    0.57702   0.58098   0.58469   0.58727   0.59199
 Alpha virt. eigenvalues --    0.59512   0.60546   0.61434   0.61626   0.62212
 Alpha virt. eigenvalues --    0.62907   0.63373   0.63928   0.64242   0.64610
 Alpha virt. eigenvalues --    0.65036   0.65442   0.65718   0.66149   0.66325
 Alpha virt. eigenvalues --    0.66655   0.67088   0.67424   0.67949   0.68252
 Alpha virt. eigenvalues --    0.68995   0.69259   0.70365   0.70735   0.71588
 Alpha virt. eigenvalues --    0.71635   0.71901   0.72348   0.72894   0.73493
 Alpha virt. eigenvalues --    0.73977   0.74568   0.75030   0.75465   0.75999
 Alpha virt. eigenvalues --    0.77043   0.77431   0.77989   0.78518   0.78921
 Alpha virt. eigenvalues --    0.79109   0.80095   0.80384   0.80840   0.81156
 Alpha virt. eigenvalues --    0.81300   0.82196   0.83184   0.83211   0.83601
 Alpha virt. eigenvalues --    0.83992   0.84382   0.84451   0.84931   0.85404
 Alpha virt. eigenvalues --    0.86145   0.86895   0.87575   0.88166   0.88659
 Alpha virt. eigenvalues --    0.90099   0.90485   0.91912   0.92011   0.93281
 Alpha virt. eigenvalues --    0.93901   0.95065   0.98399   0.98849   0.99446
 Alpha virt. eigenvalues --    0.99971   1.00850   1.01474   1.03447   1.04154
 Alpha virt. eigenvalues --    1.04650   1.05784   1.05927   1.07445   1.08581
 Alpha virt. eigenvalues --    1.10500   1.11050   1.12090   1.13141   1.13712
 Alpha virt. eigenvalues --    1.14803   1.15589   1.16470   1.17463   1.17986
 Alpha virt. eigenvalues --    1.18129   1.19146   1.20194   1.21298   1.21729
 Alpha virt. eigenvalues --    1.22825   1.24186   1.24556   1.25857   1.26549
 Alpha virt. eigenvalues --    1.27401   1.27761   1.28473   1.28853   1.30383
 Alpha virt. eigenvalues --    1.31019   1.31759   1.32862   1.33149   1.34301
 Alpha virt. eigenvalues --    1.34708   1.35030   1.35253   1.35873   1.36058
 Alpha virt. eigenvalues --    1.36816   1.37027   1.37892   1.38467   1.38889
 Alpha virt. eigenvalues --    1.40542   1.41612   1.41930   1.42604   1.43989
 Alpha virt. eigenvalues --    1.45338   1.46513   1.47160   1.48315   1.48856
 Alpha virt. eigenvalues --    1.50249   1.50420   1.51180   1.51936   1.53131
 Alpha virt. eigenvalues --    1.53330   1.54561   1.55017   1.55958   1.57228
 Alpha virt. eigenvalues --    1.58119   1.58627   1.58732   1.60105   1.61375
 Alpha virt. eigenvalues --    1.62328   1.64361   1.64575   1.65226   1.67471
 Alpha virt. eigenvalues --    1.68005   1.68647   1.70331   1.70590   1.73250
 Alpha virt. eigenvalues --    1.74941   1.77093   1.79060   1.79742   1.80639
 Alpha virt. eigenvalues --    1.81189   1.81888   1.84016   1.84918   1.86980
 Alpha virt. eigenvalues --    1.88156   1.90077   1.92070   1.93388   1.94958
 Alpha virt. eigenvalues --    1.96234   1.96539   1.98247   1.99425   2.00986
 Alpha virt. eigenvalues --    2.01884   2.04167   2.06439   2.08730   2.10964
 Alpha virt. eigenvalues --    2.11808   2.13724   2.18068   2.18475   2.21172
 Alpha virt. eigenvalues --    2.24442   2.25859   2.26742   2.27433   2.28526
 Alpha virt. eigenvalues --    2.30262   2.32043   2.33788   2.34877   2.35653
 Alpha virt. eigenvalues --    2.36339   2.37501   2.37807   2.38619   2.39123
 Alpha virt. eigenvalues --    2.40062   2.42954   2.43127   2.43590   2.45044
 Alpha virt. eigenvalues --    2.46348   2.48201   2.50362   2.53014   2.54097
 Alpha virt. eigenvalues --    2.57046   2.57609   2.62558   2.63937   2.66202
 Alpha virt. eigenvalues --    2.66721   2.67137   2.70001   2.70569   2.73001
 Alpha virt. eigenvalues --    2.73853   2.74716   2.76048   2.77532   2.78130
 Alpha virt. eigenvalues --    2.78905   2.80030   2.80480   2.80619   2.81281
 Alpha virt. eigenvalues --    2.82295   2.82928   2.85196   2.87599   2.88267
 Alpha virt. eigenvalues --    2.88452   2.89382   2.89781   2.91027   2.92326
 Alpha virt. eigenvalues --    2.95576   2.96569   2.97538   2.98427   2.99384
 Alpha virt. eigenvalues --    3.00352   3.01318   3.03013   3.06843   3.07930
 Alpha virt. eigenvalues --    3.08711   3.13119   3.14620   3.15010   3.15289
 Alpha virt. eigenvalues --    3.16136   3.17223   3.17834   3.19469   3.20737
 Alpha virt. eigenvalues --    3.22410   3.22831   3.24349   3.26129   3.28125
 Alpha virt. eigenvalues --    3.28562   3.29284   3.30220   3.31082   3.31876
 Alpha virt. eigenvalues --    3.32168   3.32894   3.33039   3.34032   3.35604
 Alpha virt. eigenvalues --    3.35976   3.37252   3.37416   3.38410   3.39212
 Alpha virt. eigenvalues --    3.40305   3.41236   3.42174   3.43505   3.44684
 Alpha virt. eigenvalues --    3.45635   3.48225   3.49434   3.50335   3.51617
 Alpha virt. eigenvalues --    3.52084   3.52798   3.53333   3.54495   3.55102
 Alpha virt. eigenvalues --    3.56134   3.57933   3.58562   3.59521   3.59836
 Alpha virt. eigenvalues --    3.60203   3.60795   3.61723   3.62247   3.62264
 Alpha virt. eigenvalues --    3.64055   3.64802   3.65172   3.65388   3.66399
 Alpha virt. eigenvalues --    3.67737   3.67840   3.68662   3.68864   3.70666
 Alpha virt. eigenvalues --    3.71700   3.72406   3.72912   3.73719   3.74886
 Alpha virt. eigenvalues --    3.76398   3.77396   3.78703   3.79220   3.79354
 Alpha virt. eigenvalues --    3.80630   3.80949   3.81716   3.82457   3.84840
 Alpha virt. eigenvalues --    3.85394   3.86213   3.87711   3.89452   3.91616
 Alpha virt. eigenvalues --    3.93116   3.94211   3.95354   3.95692   3.96817
 Alpha virt. eigenvalues --    3.97833   3.98034   3.98344   3.98829   4.00419
 Alpha virt. eigenvalues --    4.02662   4.03671   4.07579   4.08575   4.09261
 Alpha virt. eigenvalues --    4.13770   4.15146   4.16492   4.20280   4.22609
 Alpha virt. eigenvalues --    4.23185   4.27029   4.27403   4.28697   4.29834
 Alpha virt. eigenvalues --    4.32700   4.35169   4.41525   4.43119   4.54433
 Alpha virt. eigenvalues --    4.55154   4.55298   4.57967   4.61328   4.66729
 Alpha virt. eigenvalues --    4.71530   4.84823   4.85716   4.89865   4.94548
 Alpha virt. eigenvalues --    5.29663   5.30535   5.31953   5.33687   5.50656
 Alpha virt. eigenvalues --    5.65404   5.71231   5.90239   7.06160   7.14030
 Alpha virt. eigenvalues --    7.16753   7.20117   7.21368   7.24914   7.32873
 Alpha virt. eigenvalues --    7.38153   7.59960   7.62045  23.80087  23.83271
 Alpha virt. eigenvalues --   23.92441  24.02323  24.08838  24.09832  24.10057
 Alpha virt. eigenvalues --   24.12905  24.13955  24.16001  24.16862  24.19649
 Alpha virt. eigenvalues --   24.20544  24.21949  24.23298  24.30279  24.30961
 Alpha virt. eigenvalues --   50.23004  50.24712
          Condensed to atoms (all electrons):
               1          2          3          4          5          6
     1  C   15.248175  -4.451466   0.159587  -0.112169  -0.070752   0.398460
     2  C   -4.451466  15.821509  -3.299667   0.749701  -1.466393  -0.363847
     3  C    0.159587  -3.299667  14.086591  -0.448367   1.053978  -1.891099
     4  C   -0.112169   0.749701  -0.448367   6.447805  -0.165469   0.604696
     5  C   -0.070752  -1.466393   1.053978  -0.165469   6.047251  -0.209452
     6  C    0.398460  -0.363847  -1.891099   0.604696  -0.209452   9.285772
     7  C   -0.613949  -2.213166  -3.263631  -1.057120   0.626660  -1.913331
     8  H    0.001174  -0.119162   0.017121  -0.012555   0.028683  -0.045736
     9  H    0.002815   0.037512  -0.006151   0.025300  -0.090555   0.461482
    10  H   -0.000674  -0.001367   0.022996  -0.077253   0.457056  -0.074905
    11  H    0.003639   0.012224  -0.043469   0.437618  -0.073473   0.025464
    12  H    0.009734  -0.152407   0.505461  -0.077149   0.028185  -0.008284
    13  O   -0.087029   0.185069  -0.015972  -0.008471   0.001467   0.102095
    14  C   -1.414814   1.129614  -0.217510   0.022204  -0.041831  -0.193662
    15  O    0.165875   0.227174   0.045423   0.001049  -0.001477  -0.009132
    16  C   -0.809301  -2.019283   1.341260  -0.163746   0.104664  -0.118140
    17  C   -4.025776   1.815602  -2.309173   0.067095  -0.112500   0.089594
    18  C    1.199594  -1.802390   0.893941  -0.133721   0.098105  -0.232451
    19  C   -0.551654   0.273853  -0.277555   0.054114  -0.011965  -0.006890
    20  C    0.072590  -0.142605   0.199327  -0.022274   0.018985  -0.004803
    21  C   -0.100546   0.511386  -0.292147   0.049150  -0.035186   0.158080
    22  C    0.217587   0.530552   0.230601   0.023220  -0.029543   0.201753
    23  H   -0.000004   0.018250  -0.002592   0.000581   0.000368  -0.006558
    24  H    0.001573   0.000052  -0.001732   0.000721  -0.000739   0.000466
    25  H   -0.000156  -0.000038   0.000109  -0.000124   0.000241  -0.000081
    26  H    0.000709   0.000156  -0.001359   0.000825  -0.000064   0.000046
    27  H    0.028576  -0.010606   0.004668  -0.001891   0.000300  -0.000322
    28  H    0.075398  -0.016811   0.077993   0.003093   0.000703  -0.003191
    29  C    0.363746   0.228536   0.296903   0.006927   0.003722  -0.042211
    30  H   -0.017389  -0.009198  -0.003573  -0.000175   0.000015   0.000464
    31  H    0.007249   0.006261   0.000634   0.000045   0.000005  -0.000071
    32  H    0.029320   0.002502   0.002111   0.000328   0.000018   0.000049
    33  C   -0.203432  -0.468362  -0.169739  -0.005101   0.002257   0.095531
    34  H   -0.007551   0.013449   0.000953  -0.000186   0.000197  -0.005135
    35  H   -0.019191   0.001736  -0.002164   0.000104  -0.001276   0.010191
    36  H    0.021028  -0.010214   0.000109   0.000012   0.000009   0.001580
    37  H    0.616016  -0.244497  -0.006631  -0.014718   0.002010   0.007057
               7          8          9         10         11         12
     1  C   -0.613949   0.001174   0.002815  -0.000674   0.003639   0.009734
     2  C   -2.213166  -0.119162   0.037512  -0.001367   0.012224  -0.152407
     3  C   -3.263631   0.017121  -0.006151   0.022996  -0.043469   0.505461
     4  C   -1.057120  -0.012555   0.025300  -0.077253   0.437618  -0.077149
     5  C    0.626660   0.028683  -0.090555   0.457056  -0.073473   0.028185
     6  C   -1.913331  -0.045736   0.461482  -0.074905   0.025464  -0.008284
     7  C   13.909597   0.459746  -0.084590   0.020002  -0.015689   0.025202
     8  H    0.459746   0.535279  -0.006944  -0.000289   0.000075  -0.000246
     9  H   -0.084590  -0.006944   0.544974  -0.006221  -0.000278   0.000068
    10  H    0.020002  -0.000289  -0.006221   0.543319  -0.006029  -0.000272
    11  H   -0.015689   0.000075  -0.000278  -0.006029   0.543330  -0.006703
    12  H    0.025202  -0.000246   0.000068  -0.000272  -0.006703   0.532368
    13  O   -0.168028   0.007560   0.000070   0.000005   0.000024   0.000680
    14  C   -0.291099  -0.004936  -0.000583  -0.000013  -0.000032   0.001845
    15  O   -0.193216   0.000419  -0.000008   0.000003  -0.000001  -0.000259
    16  C    0.151987   0.012855   0.001136  -0.000186   0.000163   0.034990
    17  C    1.386911   0.009515  -0.001650   0.000325   0.000621  -0.016346
    18  C    0.101145   0.004169  -0.000482   0.000143  -0.000277   0.004794
    19  C    0.144984  -0.000247   0.000031  -0.000050   0.000182  -0.010670
    20  C   -0.091890   0.000238  -0.000016   0.000153  -0.000220  -0.000124
    21  C   -0.090520  -0.001987   0.001140  -0.000876  -0.000144  -0.000185
    22  C   -0.452461  -0.011267   0.000120   0.000334  -0.000220  -0.000530
    23  H    0.001809  -0.000517   0.000019   0.000001  -0.000002  -0.000014
    24  H   -0.000086  -0.000001   0.000001   0.000002   0.000001  -0.000001
    25  H   -0.000088   0.000000   0.000000  -0.000000   0.000001   0.000000
    26  H   -0.000217  -0.000000  -0.000000   0.000000   0.000001   0.000029
    27  H   -0.001490  -0.000002  -0.000000   0.000000   0.000001  -0.000169
    28  H   -0.047069  -0.000081  -0.000001   0.000000  -0.000001  -0.000699
    29  C   -0.387521   0.004871  -0.000056  -0.000004   0.000012  -0.000351
    30  H    0.007687   0.000007  -0.000000   0.000000   0.000000   0.000000
    31  H   -0.000407  -0.000012  -0.000000  -0.000000  -0.000000  -0.000001
    32  H   -0.001402   0.000003  -0.000000  -0.000000  -0.000000  -0.000000
    33  C    0.390678  -0.007227   0.000391  -0.000012  -0.000010   0.000426
    34  H   -0.004404   0.000148   0.000000   0.000000   0.000000  -0.000000
    35  H   -0.004552   0.003196   0.000000  -0.000000   0.000000  -0.000000
    36  H    0.002989  -0.000061   0.000000   0.000000  -0.000000   0.000000
    37  H    0.041714   0.000130   0.000018  -0.000001  -0.000012   0.004535
              13         14         15         16         17         18
     1  C   -0.087029  -1.414814   0.165875  -0.809301  -4.025776   1.199594
     2  C    0.185069   1.129614   0.227174  -2.019283   1.815602  -1.802390
     3  C   -0.015972  -0.217510   0.045423   1.341260  -2.309173   0.893941
     4  C   -0.008471   0.022204   0.001049  -0.163746   0.067095  -0.133721
     5  C    0.001467  -0.041831  -0.001477   0.104664  -0.112500   0.098105
     6  C    0.102095  -0.193662  -0.009132  -0.118140   0.089594  -0.232451
     7  C   -0.168028  -0.291099  -0.193216   0.151987   1.386911   0.101145
     8  H    0.007560  -0.004936   0.000419   0.012855   0.009515   0.004169
     9  H    0.000070  -0.000583  -0.000008   0.001136  -0.001650  -0.000482
    10  H    0.000005  -0.000013   0.000003  -0.000186   0.000325   0.000143
    11  H    0.000024  -0.000032  -0.000001   0.000163   0.000621  -0.000277
    12  H    0.000680   0.001845  -0.000259   0.034990  -0.016346   0.004794
    13  O    8.194781   0.335938  -0.037633  -0.005624   0.114737  -0.023704
    14  C    0.335938   8.319364   0.275482  -1.052305   0.424753  -0.293108
    15  O   -0.037633   0.275482   8.107724  -0.144437  -0.026869   0.003593
    16  C   -0.005624  -1.052305  -0.144437   9.933529  -0.997928   0.592921
    17  C    0.114737   0.424753  -0.026869  -0.997928  14.358934  -2.332732
    18  C   -0.023704  -0.293108   0.003593   0.592921  -2.332732  12.308352
    19  C    0.004260  -0.104319  -0.030779  -0.330665   0.705306  -0.882517
    20  C   -0.001844   0.008827   0.009295  -0.100222  -1.275010   0.678597
    21  C   -0.000799  -0.005235   0.064090  -0.198678  -0.675278  -1.527029
    22  C   -0.007892   0.140759   0.061673  -0.735151  -1.822459  -2.598141
    23  H   -0.001634   0.002319  -0.002666  -0.024352  -0.071505  -0.000817
    24  H   -0.000009   0.000072  -0.000023   0.003290   0.039333   0.000370
    25  H    0.000001  -0.000012   0.000009  -0.001576  -0.002936   0.018036
    26  H   -0.000001   0.000020   0.000018   0.004002   0.018723  -0.047511
    27  H   -0.000362   0.002344  -0.000234   0.013765  -0.171532   0.550193
    28  H   -0.007672  -0.074973  -0.045598   0.520072  -0.250586   0.028657
    29  C   -0.105504  -0.823675  -0.012205   0.104432  -0.412766  -0.020024
    30  H   -0.004608   0.016451   0.008673   0.014277   0.002524   0.000483
    31  H    0.008962  -0.014468  -0.004251  -0.017656  -0.009039  -0.003670
    32  H   -0.004173  -0.124397  -0.006247   0.003331   0.008454   0.002692
    33  C   -0.160881  -0.373585  -0.267181   0.181374   0.351379   0.102938
    34  H   -0.006751  -0.032094   0.009800   0.000835  -0.002766  -0.000375
    35  H   -0.004490  -0.080567  -0.002956   0.011623  -0.010619  -0.002922
    36  H    0.010042  -0.010143  -0.003647  -0.008435  -0.006368  -0.000995
    37  H   -0.041049  -0.030841   0.004678   0.007664  -0.050831   0.020801
              19         20         21         22         23         24
     1  C   -0.551654   0.072590  -0.100546   0.217587  -0.000004   0.001573
     2  C    0.273853  -0.142605   0.511386   0.530552   0.018250   0.000052
     3  C   -0.277555   0.199327  -0.292147   0.230601  -0.002592  -0.001732
     4  C    0.054114  -0.022274   0.049150   0.023220   0.000581   0.000721
     5  C   -0.011965   0.018985  -0.035186  -0.029543   0.000368  -0.000739
     6  C   -0.006890  -0.004803   0.158080   0.201753  -0.006558   0.000466
     7  C    0.144984  -0.091890  -0.090520  -0.452461   0.001809  -0.000086
     8  H   -0.000247   0.000238  -0.001987  -0.011267  -0.000517  -0.000001
     9  H    0.000031  -0.000016   0.001140   0.000120   0.000019   0.000001
    10  H   -0.000050   0.000153  -0.000876   0.000334   0.000001   0.000002
    11  H    0.000182  -0.000220  -0.000144  -0.000220  -0.000002   0.000001
    12  H   -0.010670  -0.000124  -0.000185  -0.000530  -0.000014  -0.000001
    13  O    0.004260  -0.001844  -0.000799  -0.007892  -0.001634  -0.000009
    14  C   -0.104319   0.008827  -0.005235   0.140759   0.002319   0.000072
    15  O   -0.030779   0.009295   0.064090   0.061673  -0.002666  -0.000023
    16  C   -0.330665  -0.100222  -0.198678  -0.735151  -0.024352   0.003290
    17  C    0.705306  -1.275010  -0.675278  -1.822459  -0.071505   0.039333
    18  C   -0.882517   0.678597  -1.527029  -2.598141  -0.000817   0.000370
    19  C    7.371840   0.087369   0.475457  -1.068111  -0.006397   0.020459
    20  C    0.087369   5.838948   0.135899   0.410748   0.021782  -0.083841
    21  C    0.475457   0.135899   8.060603  -0.581537  -0.100443   0.446055
    22  C   -1.068111   0.410748  -0.581537  11.690880   0.515473  -0.079396
    23  H   -0.006397   0.021782  -0.100443   0.515473   0.512762  -0.006368
    24  H    0.020459  -0.083841   0.446055  -0.079396  -0.006368   0.542106
    25  H   -0.075922   0.459718  -0.076372   0.024520  -0.000256  -0.006171
    26  H    0.436226  -0.075781   0.024543  -0.012823   0.000071  -0.000271
    27  H   -0.085554   0.024328  -0.003525  -0.007606  -0.000284   0.000075
    28  H   -0.012807   0.003363   0.000602   0.021500  -0.000234   0.000023
    29  C   -0.018734   0.006867   0.001716   0.172290   0.000918  -0.000050
    30  H    0.000067  -0.000004   0.000008   0.000131  -0.000001   0.000000
    31  H    0.000112  -0.000055   0.000808   0.004877   0.000006   0.000000
    32  H   -0.002085   0.000248  -0.000289   0.000914   0.000005   0.000000
    33  C    0.016538  -0.004596  -0.020852  -0.251532  -0.000437  -0.000006
    34  H    0.000011  -0.000014   0.000221   0.001165  -0.000031  -0.000000
    35  H    0.000168   0.000013   0.004830   0.010253  -0.000003  -0.000000
    36  H   -0.000193   0.000062  -0.000054   0.001966   0.000033  -0.000000
    37  H   -0.000804  -0.000202   0.000100  -0.000963  -0.000160  -0.000002
              25         26         27         28         29         30
     1  C   -0.000156   0.000709   0.028576   0.075398   0.363746  -0.017389
     2  C   -0.000038   0.000156  -0.010606  -0.016811   0.228536  -0.009198
     3  C    0.000109  -0.001359   0.004668   0.077993   0.296903  -0.003573
     4  C   -0.000124   0.000825  -0.001891   0.003093   0.006927  -0.000175
     5  C    0.000241  -0.000064   0.000300   0.000703   0.003722   0.000015
     6  C   -0.000081   0.000046  -0.000322  -0.003191  -0.042211   0.000464
     7  C   -0.000088  -0.000217  -0.001490  -0.047069  -0.387521   0.007687
     8  H    0.000000  -0.000000  -0.000002  -0.000081   0.004871   0.000007
     9  H    0.000000  -0.000000  -0.000000  -0.000001  -0.000056  -0.000000
    10  H   -0.000000   0.000000   0.000000   0.000000  -0.000004   0.000000
    11  H    0.000001   0.000001   0.000001  -0.000001   0.000012   0.000000
    12  H    0.000000   0.000029  -0.000169  -0.000699  -0.000351   0.000000
    13  O    0.000001  -0.000001  -0.000362  -0.007672  -0.105504  -0.004608
    14  C   -0.000012   0.000020   0.002344  -0.074973  -0.823675   0.016451
    15  O    0.000009   0.000018  -0.000234  -0.045598  -0.012205   0.008673
    16  C   -0.001576   0.004002   0.013765   0.520072   0.104432   0.014277
    17  C   -0.002936   0.018723  -0.171532  -0.250586  -0.412766   0.002524
    18  C    0.018036  -0.047511   0.550193   0.028657  -0.020024   0.000483
    19  C   -0.075922   0.436226  -0.085554  -0.012807  -0.018734   0.000067
    20  C    0.459718  -0.075781   0.024328   0.003363   0.006867  -0.000004
    21  C   -0.076372   0.024543  -0.003525   0.000602   0.001716   0.000008
    22  C    0.024520  -0.012823  -0.007606   0.021500   0.172290   0.000131
    23  H   -0.000256   0.000071  -0.000284  -0.000234   0.000918  -0.000001
    24  H   -0.006171  -0.000271   0.000075   0.000023  -0.000050   0.000000
    25  H    0.542095  -0.006128  -0.000278  -0.000001   0.000003  -0.000000
    26  H   -0.006128   0.541854  -0.006704  -0.000040  -0.000012  -0.000000
    27  H   -0.000278  -0.006704   0.534932   0.008055  -0.000041  -0.000001
    28  H   -0.000001  -0.000040   0.008055   0.578358   0.031706  -0.000268
    29  C    0.000003  -0.000012  -0.000041   0.031706   7.305111   0.367226
    30  H   -0.000000  -0.000000  -0.000001  -0.000268   0.367226   0.493820
    31  H    0.000000   0.000000   0.000003   0.000808   0.395660  -0.026042
    32  H    0.000000   0.000000   0.000044   0.004075   0.449726  -0.024912
    33  C   -0.000009   0.000007   0.000180  -0.015525  -1.282693  -0.004017
    34  H    0.000000  -0.000000   0.000000   0.000051  -0.005835   0.000820
    35  H    0.000000  -0.000000   0.000000  -0.000042   0.000631  -0.000051
    36  H    0.000000  -0.000000   0.000000   0.000034   0.008973   0.000350
    37  H    0.000000  -0.000005  -0.000391  -0.011713   0.013491  -0.000080
              31         32         33         34         35         36
     1  C    0.007249   0.029320  -0.203432  -0.007551  -0.019191   0.021028
     2  C    0.006261   0.002502  -0.468362   0.013449   0.001736  -0.010214
     3  C    0.000634   0.002111  -0.169739   0.000953  -0.002164   0.000109
     4  C    0.000045   0.000328  -0.005101  -0.000186   0.000104   0.000012
     5  C    0.000005   0.000018   0.002257   0.000197  -0.001276   0.000009
     6  C   -0.000071   0.000049   0.095531  -0.005135   0.010191   0.001580
     7  C   -0.000407  -0.001402   0.390678  -0.004404  -0.004552   0.002989
     8  H   -0.000012   0.000003  -0.007227   0.000148   0.003196  -0.000061
     9  H   -0.000000  -0.000000   0.000391   0.000000   0.000000   0.000000
    10  H   -0.000000  -0.000000  -0.000012   0.000000  -0.000000   0.000000
    11  H   -0.000000  -0.000000  -0.000010   0.000000   0.000000  -0.000000
    12  H   -0.000001  -0.000000   0.000426  -0.000000  -0.000000   0.000000
    13  O    0.008962  -0.004173  -0.160881  -0.006751  -0.004490   0.010042
    14  C   -0.014468  -0.124397  -0.373585  -0.032094  -0.080567  -0.010143
    15  O   -0.004251  -0.006247  -0.267181   0.009800  -0.002956  -0.003647
    16  C   -0.017656   0.003331   0.181374   0.000835   0.011623  -0.008435
    17  C   -0.009039   0.008454   0.351379  -0.002766  -0.010619  -0.006368
    18  C   -0.003670   0.002692   0.102938  -0.000375  -0.002922  -0.000995
    19  C    0.000112  -0.002085   0.016538   0.000011   0.000168  -0.000193
    20  C   -0.000055   0.000248  -0.004596  -0.000014   0.000013   0.000062
    21  C    0.000808  -0.000289  -0.020852   0.000221   0.004830  -0.000054
    22  C    0.004877   0.000914  -0.251532   0.001165   0.010253   0.001966
    23  H    0.000006   0.000005  -0.000437  -0.000031  -0.000003   0.000033
    24  H    0.000000   0.000000  -0.000006  -0.000000  -0.000000  -0.000000
    25  H    0.000000   0.000000  -0.000009   0.000000   0.000000   0.000000
    26  H    0.000000   0.000000   0.000007  -0.000000  -0.000000  -0.000000
    27  H    0.000003   0.000044   0.000180   0.000000   0.000000   0.000000
    28  H    0.000808   0.004075  -0.015525   0.000051  -0.000042   0.000034
    29  C    0.395660   0.449726  -1.282693  -0.005835   0.000631   0.008973
    30  H   -0.026042  -0.024912  -0.004017   0.000820  -0.000051   0.000350
    31  H    0.498307  -0.023224  -0.001763   0.000529  -0.000041   0.000749
    32  H   -0.023224   0.515986  -0.004470   0.000023  -0.000353   0.000197
    33  C   -0.001763  -0.004470   7.291464   0.410981   0.448017   0.364527
    34  H    0.000529   0.000023   0.410981   0.490079  -0.021988  -0.024525
    35  H   -0.000041  -0.000353   0.448017  -0.021988   0.511985  -0.022813
    36  H    0.000749   0.000197   0.364527  -0.024525  -0.022813   0.499211
    37  H   -0.000074  -0.000209  -0.008210  -0.000008   0.000018   0.000041
              37
     1  C    0.616016
     2  C   -0.244497
     3  C   -0.006631
     4  C   -0.014718
     5  C    0.002010
     6  C    0.007057
     7  C    0.041714
     8  H    0.000130
     9  H    0.000018
    10  H   -0.000001
    11  H   -0.000012
    12  H    0.004535
    13  O   -0.041049
    14  C   -0.030841
    15  O    0.004678
    16  C    0.007664
    17  C   -0.050831
    18  C    0.020801
    19  C   -0.000804
    20  C   -0.000202
    21  C    0.000100
    22  C   -0.000963
    23  H   -0.000160
    24  H   -0.000002
    25  H    0.000000
    26  H   -0.000005
    27  H   -0.000391
    28  H   -0.011713
    29  C    0.013491
    30  H   -0.000080
    31  H   -0.000074
    32  H   -0.000209
    33  C   -0.008210
    34  H   -0.000008
    35  H    0.000018
    36  H    0.000041
    37  H    0.544119
 Mulliken charges:
               1
     1  C   -0.136993
     2  C    1.226342
     3  C   -0.687236
     4  C   -0.194099
     5  C   -0.164201
     6  C   -0.313477
     7  C   -0.375184
     8  H    0.126082
     9  H    0.122457
    10  H    0.123811
    11  H    0.123204
    12  H    0.126091
    13  O   -0.271560
    14  C    0.504207
    15  O   -0.196156
    16  C   -0.310487
    17  C    1.190863
    18  C   -0.706661
    19  C   -0.113058
    20  C   -0.173855
    21  C   -0.223007
    22  C   -0.601683
    23  H    0.150879
    24  H    0.124098
    25  H    0.125412
    26  H    0.123686
    27  H    0.123530
    28  H    0.132818
    29  C   -0.651784
    30  H    0.177317
    31  H    0.175756
    32  H    0.171737
    33  C   -0.407050
    34  H    0.182401
    35  H    0.171262
    36  H    0.175534
    37  H    0.149004
 Sum of Mulliken charges =  -0.00000
 Mulliken charges with hydrogens summed into heavy atoms:
               1
     1  C    0.012011
     2  C    1.226342
     3  C   -0.561146
     4  C   -0.070895
     5  C   -0.040390
     6  C   -0.191020
     7  C   -0.249103
    13  O   -0.271560
    14  C    0.504207
    15  O   -0.196156
    16  C   -0.177668
    17  C    1.190863
    18  C   -0.583131
    19  C    0.010628
    20  C   -0.048442
    21  C   -0.098909
    22  C   -0.450803
    29  C   -0.126974
    33  C    0.122147
 Electronic spatial extent (au):  <R**2>=           4733.4544
 Charge=             -0.0000 electrons
 Dipole moment (field-independent basis, Debye):
    X=             -0.2869    Y=             -0.7529    Z=             -0.7479  Tot=              1.0993
 Quadrupole moment (field-independent basis, Debye-Ang):
   XX=           -100.4923   YY=           -115.8614   ZZ=           -104.8448
   XY=             -2.1524   XZ=              1.8636   YZ=              8.5859
 Traceless Quadrupole moment (field-independent basis, Debye-Ang):
   XX=              6.5738   YY=             -8.7952   ZZ=              2.2214
   XY=             -2.1524   XZ=              1.8636   YZ=              8.5859
 Octapole moment (field-independent basis, Debye-Ang**2):
  XXX=             23.0220  YYY=              7.5157  ZZZ=             -1.3298  XYY=            -13.6651
  XXY=            -14.7795  XXZ=              7.2086  XZZ=             -0.4586  YZZ=             -4.1219
  YYZ=              3.9198  XYZ=              4.0925
 Hexadecapole moment (field-independent basis, Debye-Ang**3):
 XXXX=          -3098.1972 YYYY=          -2492.8933 ZZZZ=           -749.1550 XXXY=             12.7846
 XXXZ=             22.2844 YYYX=            -52.1029 YYYZ=            105.0176 ZZZX=             -4.3468
 ZZZY=             21.1262 XXYY=           -871.8350 XXZZ=           -655.5403 YYZZ=           -514.9221
 XXYZ=             -2.8493 YYXZ=              9.7860 ZZXY=              6.1639
 N-N= 1.436911677244D+03 E-N=-4.756294361942D+03  KE= 8.044738376051D+02
 1\1\GINC-WEBMO\SP\RPBE1PBE\6-311+G(2d,p)\C17H18O2\WEBMO\21-Mar-2022\0\
 \#N PBE1PBE/6-311+G(2d,p) NMR SCRF=(PCM,Solvent=chloroform) Geom=Conne
 ctivity\\acetal of hydrobenzoin\\0,1\C\C,1,1.514703381\C,2,1.40251654,
 1,119.3787168\C,3,1.395777905,2,120.7823308,1,178.4909387,0\C,4,1.3981
 63117,3,120.050549,2,0.56009535,0\C,5,1.397164995,4,119.5303355,3,0.24
 006733,0\C,6,1.397652438,5,120.2936379,4,-0.47414204,0\H,7,1.090958959
 ,6,120.4116109,5,178.5845161,0\H,6,1.092681242,5,120.005261,4,179.1762
 03,0\H,5,1.092288773,4,120.1967326,3,179.6173715,0\H,4,1.092417977,3,1
 19.8239754,2,-179.8667112,0\H,3,1.093951007,2,119.5998262,7,179.014554
 5,0\O,1,1.432016607,2,111.4252152,3,154.880928,0\C,13,1.445866607,1,10
 9.5720526,2,123.7991421,0\O,14,1.429105874,13,105.2468619,1,-19.822349
 6,0\C,1,1.579188012,2,116.4128045,3,-87.14094788,0\C,16,1.50543052,1,1
 17.693788,2,22.48373392,0\C,17,1.401303449,16,119.3826376,1,96.1266922
 6,0\C,18,1.39719925,17,120.734521,16,-178.2165231,0\C,19,1.397015878,1
 8,119.9267601,17,-0.78920987,0\C,20,1.398391141,19,119.6423352,18,0.00
 286608,0\C,21,1.395937513,20,120.3703167,19,0.58445836,0\H,22,1.090928
 657,21,120.4222943,20,-179.8047283,0\H,21,1.092422459,20,119.9696715,1
 9,-179.5363927,0\H,20,1.09228709,19,120.1653979,18,-179.5143628,0\H,19
 ,1.092373311,18,119.8723668,17,179.9539979,0\H,18,1.094276906,17,119.5
 029973,16,2.18280754,0\H,16,1.10729362,1,107.2040019,2,144.5890991,0\C
 ,14,1.532412183,15,111.6789818,16,-83.59125418,0\H,29,1.098995739,14,1
 09.7424579,15,176.6417241,0\H,29,1.099466821,14,110.2875001,15,-63.400
 40696,0\H,29,1.098850564,14,111.2218986,15,57.26618235,0\C,14,1.520096
 938,15,108.4298503,16,152.1874928,0\H,33,1.098517826,14,109.9188809,15
 ,-174.209942,0\H,33,1.097772957,14,109.9900528,15,-54.01503637,0\H,33,
 1.098892223,14,110.1839271,15,66.01209274,0\H,1,1.105140931,2,108.3082
 318,3,34.86303158,0\\Version=EM64L-G16RevB.01\State=1-A\HF=-808.374640
 5\RMSD=8.313e-09\Dipole=0.3669279,0.0927175,-0.2093422\Quadrupole=5.49
 18037,-8.4600045,2.9682007,1.143783,-0.2733152,4.823059\PG=C01 [X(C17H
 18O2)]\\@


 BE LIKE A POSTAGE STAMP.  STICK TO ONE THING UNTIL
 YOU GET THERE -- JOSH BILLINGS
 Job cpu time:       0 days  1 hours 36 minutes 29.0 seconds.
 Elapsed time:       0 days  0 hours  6 minutes 18.1 seconds.
 File lengths (MBytes):  RWF=    335 Int=      0 D2E=      0 Chk=     32 Scr=      1
 Normal termination of Gaussian 16 at Mon Mar 21 16:40:23 2022.
