 Entering Gaussian System, Link 0=/usr/local/g16.b01/g16/g16
 Initial command:
 /usr/local/g16.b01/g16/l1.exe "/scratch/webmo-4695/786/Gau-134405.inp" -scrdir="/scratch/webmo-4695/786/"
 Entering Link 1 = /usr/local/g16.b01/g16/l1.exe PID=    134407.
  
 Copyright (c) 1988-2017, Gaussian, Inc.  All Rights Reserved.
  
 This is part of the Gaussian(R) 16 program.  It is based on
 the Gaussian(R) 09 system (copyright 2009, Gaussian, Inc.),
 the Gaussian(R) 03 system (copyright 2003, Gaussian, Inc.),
 the Gaussian(R) 98 system (copyright 1998, Gaussian, Inc.),
 the Gaussian(R) 94 system (copyright 1995, Gaussian, Inc.),
 the Gaussian 92(TM) system (copyright 1992, Gaussian, Inc.),
 the Gaussian 90(TM) system (copyright 1990, Gaussian, Inc.),
 the Gaussian 88(TM) system (copyright 1988, Gaussian, Inc.),
 the Gaussian 86(TM) system (copyright 1986, Carnegie Mellon
 University), and the Gaussian 82(TM) system (copyright 1983,
 Carnegie Mellon University). Gaussian is a federally registered
 trademark of Gaussian, Inc.
  
 This software contains proprietary and confidential information,
 including trade secrets, belonging to Gaussian, Inc.
  
 This software is provided under written license and may be
 used, copied, transmitted, or stored only in accord with that
 written license.
  
 The following legend is applicable only to US Government
 contracts under FAR:
  
                    RESTRICTED RIGHTS LEGEND
  
 Use, reproduction and disclosure by the US Government is
 subject to restrictions as set forth in subparagraphs (a)
 and (c) of the Commercial Computer Software - Restricted
 Rights clause in FAR 52.227-19.
  
 Gaussian, Inc.
 340 Quinnipiac St., Bldg. 40, Wallingford CT 06492
  
  
 ---------------------------------------------------------------
 Warning -- This program may not be used in any manner that
 competes with the business of Gaussian, Inc. or will provide
 assistance to any competitor of Gaussian, Inc.  The licensee
 of this program is prohibited from giving any competitor of
 Gaussian, Inc. access to this program.  By using this program,
 the user acknowledges that Gaussian, Inc. is engaged in the
 business of creating and licensing software in the field of
 computational chemistry and represents and warrants to the
 licensee that it is not a competitor of Gaussian, Inc. and that
 it will not use this program in any manner prohibited above.
 ---------------------------------------------------------------
  

 Cite this work as:
 Gaussian 16, Revision B.01,
 M. J. Frisch, G. W. Trucks, H. B. Schlegel, G. E. Scuseria, 
 M. A. Robb, J. R. Cheeseman, G. Scalmani, V. Barone, 
 G. A. Petersson, H. Nakatsuji, X. Li, M. Caricato, A. V. Marenich, 
 J. Bloino, B. G. Janesko, R. Gomperts, B. Mennucci, H. P. Hratchian, 
 J. V. Ortiz, A. F. Izmaylov, J. L. Sonnenberg, D. Williams-Young, 
 F. Ding, F. Lipparini, F. Egidi, J. Goings, B. Peng, A. Petrone, 
 T. Henderson, D. Ranasinghe, V. G. Zakrzewski, J. Gao, N. Rega, 
 G. Zheng, W. Liang, M. Hada, M. Ehara, K. Toyota, R. Fukuda, 
 J. Hasegawa, M. Ishida, T. Nakajima, Y. Honda, O. Kitao, H. Nakai, 
 T. Vreven, K. Throssell, J. A. Montgomery, Jr., J. E. Peralta, 
 F. Ogliaro, M. J. Bearpark, J. J. Heyd, E. N. Brothers, K. N. Kudin, 
 V. N. Staroverov, T. A. Keith, R. Kobayashi, J. Normand, 
 K. Raghavachari, A. P. Rendell, J. C. Burant, S. S. Iyengar, 
 J. Tomasi, M. Cossi, J. M. Millam, M. Klene, C. Adamo, R. Cammi, 
 J. W. Ochterski, R. L. Martin, K. Morokuma, O. Farkas, 
 J. B. Foresman, and D. J. Fox, Gaussian, Inc., Wallingford CT, 2016.
 
 ******************************************
 Gaussian 16:  EM64L-G16RevB.01 20-Dec-2017
                11-Nov-2021 
 ******************************************
 %NProcShared=8
 Will use up to    8 processors via shared memory.
 %mem=8GB
 --------------------------------------------------
 #N PBEPBE/6-311+G(2d,p) OPT FREQ Geom=Connectivity
 --------------------------------------------------
 1/18=20,19=15,26=3,38=1,57=2/1,3;
 2/9=110,12=2,17=6,18=5,40=1/2;
 3/5=4,6=6,7=112,11=2,25=1,30=1,71=1,74=1009/1,2,3;
 4//1;
 5/5=2,38=5/2;
 6/7=2,8=2,9=2,10=2,28=1/1;
 7//1,2,3,16;
 1/18=20,19=15,26=3/3(2);
 2/9=110/2;
 99//99;
 2/9=110/2;
 3/5=4,6=6,7=112,11=2,25=1,30=1,71=1,74=1009/1,2,3;
 4/5=5,16=3,69=1/1;
 5/5=2,38=5/2;
 7//1,2,3,16;
 1/18=20,19=15,26=3/3(-5);
 2/9=110/2;
 6/7=2,8=2,9=2,10=2,19=2,28=1/1;
 99/9=1/99;
 ----------
 C12H17O3N3
 ----------
 Symbolic Z-matrix:
 Charge =  0 Multiplicity = 1
 C
 C                    1    B1
 N                    2    B2       1    A1
 C                    3    B3       2    A2       1    D1       0
 C                    4    B4       3    A3       2    D2       0
 C                    5    B5       4    A4       3    D3       0
 C                    6    B6       5    A5       4    D4       0
 N                    7    B7       6    A6       5    D5       0
 O                    8    B8       7    A7       6    D6       0
 O                    8    B9       9    A8       7    D7       0
 C                    7    B10      8    A9       9    D8       0
 C                    4    B11      5    A10      6    D9       0
 H                    12   B12      4    A11      5    D10      0
 H                    11   B13      12   A12      4    D11      0
 H                    6    B14      7    A13      8    D12      0
 H                    5    B15      6    A14      7    D13      0
 H                    3    B16      4    A15      5    D14      0
 O                    2    B17      3    A16      4    D15      0
 N                    1    B18      2    A17      3    D16      0
 C                    19   B19      1    A18      2    D17      0
 C                    20   B20      19   A19      1    D18      0
 H                    21   B21      20   A20      19   D19      0
 H                    21   B22      20   A21      19   D20      0
 H                    21   B23      20   A22      19   D21      0
 H                    20   B24      21   A23      22   D22      0
 H                    20   B25      21   A24      22   D23      0
 C                    19   B26      1    A25      2    D24      0
 C                    27   B27      19   A26      1    D25      0
 H                    28   B28      27   A27      19   D26      0
 H                    28   B29      27   A28      19   D27      0
 H                    28   B30      27   A29      19   D28      0
 H                    27   B31      28   A30      29   D29      0
 H                    27   B32      28   A31      29   D30      0
 H                    1    B33      2    A32      3    D31      0
 H                    1    B34      2    A33      3    D32      0
       Variables:
  B1                    1.54311                  
  B2                    1.38077                  
  B3                    1.39518                  
  B4                    1.41594                  
  B5                    1.3945                   
  B6                    1.40159                  
  B7                    1.46853                  
  B8                    1.24335                  
  B9                    1.24424                  
  B10                   1.40201                  
  B11                   1.41618                  
  B12                   1.09571                  
  B13                   1.09185                  
  B14                   1.09213                  
  B15                   1.09054                  
  B16                   1.03294                  
  B17                   1.23156                  
  B18                   1.47129                  
  B19                   1.47907                  
  B20                   1.5302                   
  B21                   1.10304                  
  B22                   1.1033                   
  B23                   1.10258                  
  B24                   1.11492                  
  B25                   1.10405                  
  B26                   1.47829                  
  B27                   1.52959                  
  B28                   1.103                    
  B29                   1.10281                  
  B30                   1.10313                  
  B31                   1.11607                  
  B32                   1.10263                  
  B33                   1.10877                  
  B34                   1.10525                  
  A1                  111.9198                   
  A2                  129.5719                   
  A3                  122.67918                  
  A4                  119.60943                  
  A5                  119.86329                  
  A6                  119.49965                  
  A7                  117.70752                  
  A8                  124.65949                  
  A9                  119.16725                  
  A10                 119.6117                   
  A11                 119.56488                  
  A12                 121.77809                  
  A13                 118.99395                  
  A14                 121.38398                  
  A15                 119.26884                  
  A16                 126.39523                  
  A17                 114.32401                  
  A18                 112.81815                  
  A19                 113.41573                  
  A20                 109.7195                   
  A21                 110.6018                   
  A22                 112.7997                   
  A23                 109.93302                  
  A24                 108.39835                  
  A25                 111.48558                  
  A26                 114.05236                  
  A27                 109.41687                  
  A28                 111.41589                  
  A29                 112.46178                  
  A30                 109.56965                  
  A31                 108.72374                  
  A32                 107.16434                  
  A33                 105.86989                  
  D1                  178.38269                  
  D2                   -2.07795                  
  D3                 -179.87397                  
  D4                    0.0121                   
  D5                 -179.99141                  
  D6                    0.01349                  
  D7                 -179.99366                  
  D8                 -179.9965                   
  D9                   -0.04207                  
  D10                -179.85261                  
  D11                -179.99797                  
  D12                  -0.00103                  
  D13                 179.88045                  
  D14                -177.59229                  
  D15                   1.17865                  
  D16                  17.4426                   
  D17                -135.27565                  
  D18                 161.54639                  
  D19                -174.02868                  
  D20                 -54.65335                  
  D21                  66.60736                  
  D22                  60.86965                  
  D23                 -55.35635                  
  D24                  97.94916                  
  D25                 -63.01067                  
  D26                -178.94355                  
  D27                 -59.60029                  
  D28                  61.93364                  
  D29                  57.33004                  
  D30                 -58.86961                  
  D31                 143.87894                  
  D32                -103.31782                  
 

 GradGradGradGradGradGradGradGradGradGradGradGradGradGradGradGradGradGrad
 Berny optimization.
 Initialization pass.
                           ----------------------------
                           !    Initial Parameters    !
                           ! (Angstroms and Degrees)  !
 --------------------------                            --------------------------
 ! Name  Definition              Value          Derivative Info.                !
 --------------------------------------------------------------------------------
 ! R1    R(1,2)                  1.5431         estimate D2E/DX2                !
 ! R2    R(1,19)                 1.4713         estimate D2E/DX2                !
 ! R3    R(1,34)                 1.1088         estimate D2E/DX2                !
 ! R4    R(1,35)                 1.1053         estimate D2E/DX2                !
 ! R5    R(2,3)                  1.3808         estimate D2E/DX2                !
 ! R6    R(2,18)                 1.2316         estimate D2E/DX2                !
 ! R7    R(3,4)                  1.3952         estimate D2E/DX2                !
 ! R8    R(3,17)                 1.0329         estimate D2E/DX2                !
 ! R9    R(4,5)                  1.4159         estimate D2E/DX2                !
 ! R10   R(4,12)                 1.4162         estimate D2E/DX2                !
 ! R11   R(5,6)                  1.3945         estimate D2E/DX2                !
 ! R12   R(5,16)                 1.0905         estimate D2E/DX2                !
 ! R13   R(6,7)                  1.4016         estimate D2E/DX2                !
 ! R14   R(6,15)                 1.0921         estimate D2E/DX2                !
 ! R15   R(7,8)                  1.4685         estimate D2E/DX2                !
 ! R16   R(7,11)                 1.402          estimate D2E/DX2                !
 ! R17   R(8,9)                  1.2433         estimate D2E/DX2                !
 ! R18   R(8,10)                 1.2442         estimate D2E/DX2                !
 ! R19   R(11,12)                1.3918         estimate D2E/DX2                !
 ! R20   R(11,14)                1.0918         estimate D2E/DX2                !
 ! R21   R(12,13)                1.0957         estimate D2E/DX2                !
 ! R22   R(19,20)                1.4791         estimate D2E/DX2                !
 ! R23   R(19,27)                1.4783         estimate D2E/DX2                !
 ! R24   R(20,21)                1.5302         estimate D2E/DX2                !
 ! R25   R(20,25)                1.1149         estimate D2E/DX2                !
 ! R26   R(20,26)                1.104          estimate D2E/DX2                !
 ! R27   R(21,22)                1.103          estimate D2E/DX2                !
 ! R28   R(21,23)                1.1033         estimate D2E/DX2                !
 ! R29   R(21,24)                1.1026         estimate D2E/DX2                !
 ! R30   R(27,28)                1.5296         estimate D2E/DX2                !
 ! R31   R(27,32)                1.1161         estimate D2E/DX2                !
 ! R32   R(27,33)                1.1026         estimate D2E/DX2                !
 ! R33   R(28,29)                1.103          estimate D2E/DX2                !
 ! R34   R(28,30)                1.1028         estimate D2E/DX2                !
 ! R35   R(28,31)                1.1031         estimate D2E/DX2                !
 ! A1    A(2,1,19)             114.324          estimate D2E/DX2                !
 ! A2    A(2,1,34)             107.1643         estimate D2E/DX2                !
 ! A3    A(2,1,35)             105.8699         estimate D2E/DX2                !
 ! A4    A(19,1,34)            113.3001         estimate D2E/DX2                !
 ! A5    A(19,1,35)            109.6121         estimate D2E/DX2                !
 ! A6    A(34,1,35)            105.9914         estimate D2E/DX2                !
 ! A7    A(1,2,3)              111.9198         estimate D2E/DX2                !
 ! A8    A(1,2,18)             121.6251         estimate D2E/DX2                !
 ! A9    A(3,2,18)             126.3952         estimate D2E/DX2                !
 ! A10   A(2,3,4)              129.5719         estimate D2E/DX2                !
 ! A11   A(2,3,17)             111.0328         estimate D2E/DX2                !
 ! A12   A(4,3,17)             119.2688         estimate D2E/DX2                !
 ! A13   A(3,4,5)              122.6792         estimate D2E/DX2                !
 ! A14   A(3,4,12)             117.7089         estimate D2E/DX2                !
 ! A15   A(5,4,12)             119.6117         estimate D2E/DX2                !
 ! A16   A(4,5,6)              119.6094         estimate D2E/DX2                !
 ! A17   A(4,5,16)             119.0065         estimate D2E/DX2                !
 ! A18   A(6,5,16)             121.384          estimate D2E/DX2                !
 ! A19   A(5,6,7)              119.8633         estimate D2E/DX2                !
 ! A20   A(5,6,15)             121.1428         estimate D2E/DX2                !
 ! A21   A(7,6,15)             118.994          estimate D2E/DX2                !
 ! A22   A(6,7,8)              119.4997         estimate D2E/DX2                !
 ! A23   A(6,7,11)             121.3331         estimate D2E/DX2                !
 ! A24   A(8,7,11)             119.1672         estimate D2E/DX2                !
 ! A25   A(7,8,9)              117.7075         estimate D2E/DX2                !
 ! A26   A(7,8,10)             117.633          estimate D2E/DX2                !
 ! A27   A(9,8,10)             124.6595         estimate D2E/DX2                !
 ! A28   A(7,11,12)            118.9567         estimate D2E/DX2                !
 ! A29   A(7,11,14)            119.2652         estimate D2E/DX2                !
 ! A30   A(12,11,14)           121.7781         estimate D2E/DX2                !
 ! A31   A(4,12,11)            120.6258         estimate D2E/DX2                !
 ! A32   A(4,12,13)            119.5649         estimate D2E/DX2                !
 ! A33   A(11,12,13)           119.8092         estimate D2E/DX2                !
 ! A34   A(1,19,20)            112.8182         estimate D2E/DX2                !
 ! A35   A(1,19,27)            111.4856         estimate D2E/DX2                !
 ! A36   A(20,19,27)           111.8043         estimate D2E/DX2                !
 ! A37   A(19,20,21)           113.4157         estimate D2E/DX2                !
 ! A38   A(19,20,25)           111.1357         estimate D2E/DX2                !
 ! A39   A(19,20,26)           106.9989         estimate D2E/DX2                !
 ! A40   A(21,20,25)           109.933          estimate D2E/DX2                !
 ! A41   A(21,20,26)           108.3983         estimate D2E/DX2                !
 ! A42   A(25,20,26)           106.6546         estimate D2E/DX2                !
 ! A43   A(20,21,22)           109.7195         estimate D2E/DX2                !
 ! A44   A(20,21,23)           110.6018         estimate D2E/DX2                !
 ! A45   A(20,21,24)           112.7997         estimate D2E/DX2                !
 ! A46   A(22,21,23)           108.2706         estimate D2E/DX2                !
 ! A47   A(22,21,24)           107.1443         estimate D2E/DX2                !
 ! A48   A(23,21,24)           108.146          estimate D2E/DX2                !
 ! A49   A(19,27,28)           114.0524         estimate D2E/DX2                !
 ! A50   A(19,27,32)           109.9509         estimate D2E/DX2                !
 ! A51   A(19,27,33)           107.6112         estimate D2E/DX2                !
 ! A52   A(28,27,32)           109.5697         estimate D2E/DX2                !
 ! A53   A(28,27,33)           108.7237         estimate D2E/DX2                !
 ! A54   A(32,27,33)           106.6461         estimate D2E/DX2                !
 ! A55   A(27,28,29)           109.4169         estimate D2E/DX2                !
 ! A56   A(27,28,30)           111.4159         estimate D2E/DX2                !
 ! A57   A(27,28,31)           112.4618         estimate D2E/DX2                !
 ! A58   A(29,28,30)           107.9914         estimate D2E/DX2                !
 ! A59   A(29,28,31)           107.2875         estimate D2E/DX2                !
 ! A60   A(30,28,31)           108.0862         estimate D2E/DX2                !
 ! D1    D(19,1,2,3)            17.4426         estimate D2E/DX2                !
 ! D2    D(19,1,2,18)         -165.2004         estimate D2E/DX2                !
 ! D3    D(34,1,2,3)           143.8789         estimate D2E/DX2                !
 ! D4    D(34,1,2,18)          -38.764          estimate D2E/DX2                !
 ! D5    D(35,1,2,3)          -103.3178         estimate D2E/DX2                !
 ! D6    D(35,1,2,18)           74.0392         estimate D2E/DX2                !
 ! D7    D(2,1,19,20)         -135.2756         estimate D2E/DX2                !
 ! D8    D(2,1,19,27)           97.9492         estimate D2E/DX2                !
 ! D9    D(34,1,19,20)         101.5429         estimate D2E/DX2                !
 ! D10   D(34,1,19,27)         -25.2323         estimate D2E/DX2                !
 ! D11   D(35,1,19,20)         -16.6138         estimate D2E/DX2                !
 ! D12   D(35,1,19,27)        -143.389          estimate D2E/DX2                !
 ! D13   D(1,2,3,4)            178.3827         estimate D2E/DX2                !
 ! D14   D(1,2,3,17)            -5.8091         estimate D2E/DX2                !
 ! D15   D(18,2,3,4)             1.1786         estimate D2E/DX2                !
 ! D16   D(18,2,3,17)          176.9869         estimate D2E/DX2                !
 ! D17   D(2,3,4,5)             -2.0779         estimate D2E/DX2                !
 ! D18   D(2,3,4,12)           178.0871         estimate D2E/DX2                !
 ! D19   D(17,3,4,5)          -177.5923         estimate D2E/DX2                !
 ! D20   D(17,3,4,12)            2.5728         estimate D2E/DX2                !
 ! D21   D(3,4,5,6)           -179.874          estimate D2E/DX2                !
 ! D22   D(3,4,5,16)             0.2545         estimate D2E/DX2                !
 ! D23   D(12,4,5,6)            -0.0421         estimate D2E/DX2                !
 ! D24   D(12,4,5,16)         -179.9136         estimate D2E/DX2                !
 ! D25   D(3,4,12,11)          179.8824         estimate D2E/DX2                !
 ! D26   D(3,4,12,13)           -0.0124         estimate D2E/DX2                !
 ! D27   D(5,4,12,11)            0.0422         estimate D2E/DX2                !
 ! D28   D(5,4,12,13)         -179.8526         estimate D2E/DX2                !
 ! D29   D(4,5,6,7)              0.0121         estimate D2E/DX2                !
 ! D30   D(4,5,6,15)          -179.9781         estimate D2E/DX2                !
 ! D31   D(16,5,6,7)           179.8805         estimate D2E/DX2                !
 ! D32   D(16,5,6,15)           -0.1097         estimate D2E/DX2                !
 ! D33   D(5,6,7,8)           -179.9914         estimate D2E/DX2                !
 ! D34   D(5,6,7,11)             0.0188         estimate D2E/DX2                !
 ! D35   D(15,6,7,8)            -0.001          estimate D2E/DX2                !
 ! D36   D(15,6,7,11)         -179.9908         estimate D2E/DX2                !
 ! D37   D(6,7,8,9)              0.0135         estimate D2E/DX2                !
 ! D38   D(6,7,8,10)          -179.9924         estimate D2E/DX2                !
 ! D39   D(11,7,8,9)          -179.9965         estimate D2E/DX2                !
 ! D40   D(11,7,8,10)           -0.0024         estimate D2E/DX2                !
 ! D41   D(6,7,11,12)           -0.0189         estimate D2E/DX2                !
 ! D42   D(6,7,11,14)          179.9676         estimate D2E/DX2                !
 ! D43   D(8,7,11,12)          179.9913         estimate D2E/DX2                !
 ! D44   D(8,7,11,14)           -0.0222         estimate D2E/DX2                !
 ! D45   D(7,11,12,4)           -0.0118         estimate D2E/DX2                !
 ! D46   D(7,11,12,13)         179.8827         estimate D2E/DX2                !
 ! D47   D(14,11,12,4)        -179.998          estimate D2E/DX2                !
 ! D48   D(14,11,12,13)         -0.1034         estimate D2E/DX2                !
 ! D49   D(1,19,20,21)         161.5464         estimate D2E/DX2                !
 ! D50   D(1,19,20,25)         -74.0007         estimate D2E/DX2                !
 ! D51   D(1,19,20,26)          42.0708         estimate D2E/DX2                !
 ! D52   D(27,19,20,21)        -71.8481         estimate D2E/DX2                !
 ! D53   D(27,19,20,25)         52.6048         estimate D2E/DX2                !
 ! D54   D(27,19,20,26)        168.6763         estimate D2E/DX2                !
 ! D55   D(1,19,27,28)         -63.0107         estimate D2E/DX2                !
 ! D56   D(1,19,27,32)          60.5098         estimate D2E/DX2                !
 ! D57   D(1,19,27,33)         176.2927         estimate D2E/DX2                !
 ! D58   D(20,19,27,28)        169.663          estimate D2E/DX2                !
 ! D59   D(20,19,27,32)        -66.8165         estimate D2E/DX2                !
 ! D60   D(20,19,27,33)         48.9664         estimate D2E/DX2                !
 ! D61   D(19,20,21,22)       -174.0287         estimate D2E/DX2                !
 ! D62   D(19,20,21,23)        -54.6534         estimate D2E/DX2                !
 ! D63   D(19,20,21,24)         66.6074         estimate D2E/DX2                !
 ! D64   D(25,20,21,22)         60.8697         estimate D2E/DX2                !
 ! D65   D(25,20,21,23)       -179.755          estimate D2E/DX2                !
 ! D66   D(25,20,21,24)        -58.4943         estimate D2E/DX2                !
 ! D67   D(26,20,21,22)        -55.3564         estimate D2E/DX2                !
 ! D68   D(26,20,21,23)         64.019          estimate D2E/DX2                !
 ! D69   D(26,20,21,24)       -174.7203         estimate D2E/DX2                !
 ! D70   D(19,27,28,29)       -178.9436         estimate D2E/DX2                !
 ! D71   D(19,27,28,30)        -59.6003         estimate D2E/DX2                !
 ! D72   D(19,27,28,31)         61.9336         estimate D2E/DX2                !
 ! D73   D(32,27,28,29)         57.33           estimate D2E/DX2                !
 ! D74   D(32,27,28,30)        176.6733         estimate D2E/DX2                !
 ! D75   D(32,27,28,31)        -61.7928         estimate D2E/DX2                !
 ! D76   D(33,27,28,29)        -58.8696         estimate D2E/DX2                !
 ! D77   D(33,27,28,30)         60.4737         estimate D2E/DX2                !
 ! D78   D(33,27,28,31)       -177.9924         estimate D2E/DX2                !
 --------------------------------------------------------------------------------
 Trust Radius=3.00D-01 FncErr=1.00D-07 GrdErr=1.00D-06 EigMax=2.50D+02 EigMin=1.00D-04
 Number of steps in this run=    183 maximum allowed number of steps=    210.
 GradGradGradGradGradGradGradGradGradGradGradGradGradGradGradGradGradGrad

                          Input orientation:                          
 ---------------------------------------------------------------------
 Center     Atomic      Atomic             Coordinates (Angstroms)
 Number     Number       Type             X           Y           Z
 ---------------------------------------------------------------------
      1          6           0        0.000000    0.000000    0.000000
      2          6           0        0.000000    0.000000    1.543112
      3          7           0        1.280948    0.000000    2.058563
      4          6           0        1.704177    0.030353    3.387652
      5          6           0        0.801717    0.111596    4.475702
      6          6           0        1.295332    0.140504    5.779601
      7          6           0        2.677937    0.089331    6.003715
      8          7           0        3.189027    0.120085    7.380090
      9          8           0        2.359348    0.191153    8.303398
     10          8           0        4.422188    0.073015    7.538956
     11          6           0        3.586629    0.009373    4.939043
     12          6           0        3.097447   -0.019685    3.636367
     13          1           0        3.795224   -0.080100    2.793723
     14          1           0        4.656779   -0.028172    5.152356
     15          1           0        0.621972    0.202532    6.637207
     16          1           0       -0.269174    0.148161    4.272914
     17          1           0        1.982935   -0.097582    1.307131
     18          8           0       -1.047557    0.048357    2.188894
     19          7           0        1.279035   -0.401870   -0.606018
     20          6           0        1.684615    0.476303   -1.724935
     21          6           0        3.171507    0.372572   -2.071223
     22          1           0        3.429033    1.125072   -2.835503
     23          1           0        3.792037    0.559971   -1.178420
     24          1           0        3.447174   -0.613550   -2.480180
     25          1           0        1.068276    0.280798   -2.633199
     26          1           0        1.470652    1.514036   -1.414700
     27          6           0        1.266616   -1.825976   -1.002384
     28          6           0        1.099868   -2.797252    0.167435
     29          1           0        1.119983   -3.833302   -0.210456
     30          1           0        1.915017   -2.686691    0.901941
     31          1           0        0.141501   -2.659699    0.696129
     32          1           0        0.461688   -2.004931   -1.754505
     33          1           0        2.223452   -2.040254   -1.506712
     34          1           0       -0.855747   -0.624503   -0.327213
     35          1           0       -0.244893    1.034534   -0.302235
 ---------------------------------------------------------------------
                    Distance matrix (angstroms):
                    1          2          3          4          5
     1  C    0.000000
     2  C    1.543112   0.000000
     3  N    2.424564   1.380767   0.000000
     4  C    3.792272   2.511468   1.395178   0.000000
     5  C    4.548309   3.042251   2.466714   1.415940   0.000000
     6  C    5.924645   4.432321   3.723717   2.429137   1.394505
     7  C    6.574490   5.203490   4.186141   2.792037   2.419818
     8  N    8.040526   6.652416   5.654541   4.260563   3.759626
     9  O    8.634204   7.162719   6.340146   4.961821   4.133255
    10  O    8.740535   7.450586   6.317233   4.962130   4.742660
    11  C    6.103945   4.939266   3.689637   2.439443   2.825043
    12  C    4.776791   3.738487   2.406142   1.416179   2.447875
    13  H    4.713282   3.996770   2.620775   2.176563   3.439023
    14  H    6.945010   5.891777   4.579147   3.440271   3.916490
    15  H    6.669361   5.135920   4.630253   3.429346   2.170870
    16  H    4.283947   2.747040   2.707061   2.166029   1.090536
    17  H    2.377004   1.999310   1.032937   2.103008   3.388049
    18  O    2.427132   1.231564   2.332651   3.001564   2.941651
    19  N    1.471287   2.533019   2.694716   4.039426   5.129850
    20  C    2.457680   3.707414   3.834667   5.132037   6.273789
    21  C    3.806210   4.822933   4.557209   5.662993   6.967513
    22  H    4.589568   5.674180   5.461863   6.549901   7.834772
    23  H    4.010210   4.701047   4.134876   5.048631   6.411876
    24  H    4.290774   5.333510   5.066475   6.155007   7.477204
    25  H    2.855485   4.319911   4.704966   6.059516   7.115909
    26  H    2.540964   3.633699   3.793659   5.031743   6.091892
    27  C    2.437885   3.379061   3.564239   4.786422   5.829215
    28  C    3.010376   3.305573   3.381387   4.327856   5.206866
    29  H    3.999107   4.361602   4.457417   5.311826   6.133808
    30  H    3.420394   3.361056   2.993013   3.688569   4.673501
    31  H    2.752928   2.794888   3.198212   4.113712   4.732984
    32  H    2.703922   3.886796   4.385251   5.668151   6.588687
    33  H    3.372915   4.290431   4.214515   5.339650   6.514681
    34  H    1.108772   2.149517   3.263035   4.558757   5.133910
    35  H    1.105251   2.129680   2.995300   4.292147   4.977539
                    6          7          8          9         10
     6  C    0.000000
     7  C    1.401585   0.000000
     8  N    2.479529   1.468526   0.000000
     9  O    2.739388   2.323878   1.243349   0.000000
    10  O    3.588470   2.323714   1.244243   2.203098   0.000000
    11  C    2.444131   1.402014   2.475694   3.585827   2.731622
    12  C    2.804769   2.406701   3.747451   4.729738   4.122346
    13  H    3.900460   3.403099   4.630584   5.700161   4.788921
    14  H    3.423625   2.157414   2.671905   3.905811   2.400236
    15  H    1.092130   2.154325   2.673658   2.407238   3.907885
    16  H    2.172060   3.418274   4.649139   4.812045   5.716779
    17  H    4.531277   4.751407   6.195391   7.012333   6.694379
    18  O    4.288450   5.332340   6.700919   7.001040   7.651268
    19  N    6.408632   6.773978   8.227906   8.994245   8.743314
    20  C    7.522125   7.801824   9.235347  10.055051   9.668331
    21  C    8.075229   8.094965   9.454701  10.407943   9.695849
    22  H    8.929842   8.931331  10.267714  11.229050  10.474855
    23  H    7.404292   7.283254   8.590997   9.596536   8.753678
    24  H    8.568722   8.547645   9.890895  10.868140  10.089852
    25  H    8.417032   8.787715  10.236668  11.012904  10.712826
    26  H    7.326342   7.649849   9.068861   9.847905   9.537089
    27  C    7.061388   7.399031   8.817523   9.584386   9.301522
    28  C    6.337588   6.699614   8.055920   8.758467   8.579952
    29  H    7.190457   7.512003   8.804920   9.498315   9.285326
    30  H    5.671737   5.858024   7.174086   7.953677   7.612612
    31  H    5.917276   6.493161   7.854295   8.421208   8.521519
    32  H    7.877856   8.335926   9.767032  10.468300  10.313673
    33  H    7.662080   7.819732   9.196448  10.061606   9.545914
    34  H    6.519629   7.285405   8.735968   9.246058   9.498408
    35  H    6.337217   7.014368   8.464405   9.030520   9.175536
                   11         12         13         14         15
    11  C    0.000000
    12  C    1.391800   0.000000
    13  H    2.157293   1.095715   0.000000
    14  H    1.091848   2.174813   2.511598   0.000000
    15  H    3.422026   3.896459   4.992171   4.305539   0.000000
    16  H    3.915381   3.430379   4.331217   5.006948   2.527247
    17  H    3.971657   2.583320   2.344067   4.684017   5.509264
    18  O    5.388926   4.390998   4.882094   6.428640   4.753797
    19  N    6.020117   4.631470   4.241814   6.686380   7.298036
    20  C    6.945810   5.566476   5.018219   7.509020   8.433835
    21  C    7.031932   5.721532   4.925610   7.385575   9.075560
    22  H    7.855774   6.580693   5.768425   8.163531   9.922847
    23  H    6.145625   4.899044   4.023385   6.416574   8.441629
    24  H    7.446633   6.155252   5.312228   7.749931   9.579900
    25  H    7.984649   6.596611   6.084239   8.578326   9.281472
    26  H    6.863775   5.523770   5.065148   7.460297   8.202042
    27  C    6.637132   5.304021   4.883889   7.253009   7.930559
    28  C    6.068721   4.872236   4.641686   6.720778   7.147379
    29  H    6.882430   5.766462   5.501685   7.466438   7.964073
    30  H    5.134320   3.998518   3.729388   5.714106   6.550789
    31  H    6.082366   4.934803   4.940032   6.868088   6.612082
    32  H    7.656779   6.320595   5.958508   8.319321   8.678676
    33  H    6.899781   5.594446   4.980604   7.369718   8.597572
    34  H    6.918812   5.630587   5.627446   7.795462   7.167342
    35  H    6.572862   5.272116   5.210558   7.410014   7.042694
                   16         17         18         19         20
    16  H    0.000000
    17  H    3.732058   0.000000
    18  O    2.226878   3.159539   0.000000
    19  N    5.148151   2.061118   3.664323   0.000000
    20  C    6.316579   3.100284   4.792281   1.479073   0.000000
    21  C    7.220577   3.612066   6.004516   2.515559   1.530204
    22  H    8.072217   4.554942   6.814964   3.453209   2.167316
    23  H    6.810292   3.143754   5.917957   2.750993   2.178739
    24  H    7.745691   4.093158   6.514674   2.873695   2.205626
    25  H    7.035678   4.062754   5.270992   2.149399   1.114916
    26  H    6.102587   3.204389   4.634164   2.088391   1.104045
    27  C    5.838206   2.972259   4.364949   1.478290   2.448937
    28  C    5.234949   3.060545   4.098197   2.523527   3.826115
    29  H    6.154869   4.123513   5.051969   3.457817   4.602733
    30  H    4.916354   2.621502   4.232443   2.810484   4.118020
    31  H    4.565755   3.213821   3.312970   2.843828   4.251736
    32  H    6.442030   3.914817   4.695126   2.134686   2.766396
    33  H    6.663815   3.427759   5.359039   2.094631   2.582832
    34  H    4.701303   3.317656   2.611575   2.164391   3.101425
    35  H    4.660284   2.972367   2.796880   2.116104   2.461443
                   21         22         23         24         25
    21  C    0.000000
    22  H    1.103042   0.000000
    23  H    1.103300   1.788025   0.000000
    24  H    1.102576   1.774652   1.786242   0.000000
    25  H    2.178949   2.515332   3.100514   2.546061   0.000000
    26  H    2.151016   2.450557   2.520892   3.093301   1.779753
    27  C    3.099135   4.092073   3.478719   2.899774   2.671590
    28  C    4.398984   5.461436   4.508886   4.157916   4.161603
    29  H    5.035929   6.066965   5.232368   4.575398   4.774744
    30  H    4.447197   5.548898   4.288580   4.252548   4.692566
    31  H    5.102336   6.132274   5.215996   5.020272   4.537605
    32  H    3.618833   4.446416   4.242855   3.372784   2.522818
    33  H    2.653151   3.638461   3.054407   2.116747   2.826780
    34  H    4.500500   5.264206   4.871286   4.811498   3.136719
    35  H    3.903755   4.463561   4.158090   4.592492   2.779554
                   26         27         28         29         30
    26  H    0.000000
    27  C    3.371545   0.000000
    28  C    4.607368   1.529594   0.000000
    29  H    5.492467   2.162870   1.102999   0.000000
    30  H    4.817716   2.188083   1.102810   1.784440   0.000000
    31  H    4.862335   2.201346   1.103134   1.776702   1.785622
    32  H    3.676494   1.116073   2.174603   2.482011   3.103815
    33  H    3.634302   1.102632   2.153661   2.472437   2.512891
    34  H    3.341872   2.530577   2.964784   3.770084   3.666138
    35  H    2.100142   3.310195   4.087978   5.056396   4.467971
                   31         32         33         34         35
    31  H    0.000000
    32  H    2.556726   0.000000
    33  H    3.093661   1.779455   0.000000
    34  H    2.486715   2.382935   3.588458   0.000000
    35  H    3.846218   3.441903   4.122841   1.768098   0.000000
 Stoichiometry    C12H17N3O3
 Framework group  C1[X(C12H17N3O3)]
 Deg. of freedom    99
 Full point group                 C1      NOp   1
 Largest Abelian subgroup         C1      NOp   1
 Largest concise Abelian subgroup C1      NOp   1
                         Standard orientation:                         
 ---------------------------------------------------------------------
 Center     Atomic      Atomic             Coordinates (Angstroms)
 Number     Number       Type             X           Y           Z
 ---------------------------------------------------------------------
      1          6           0        2.986059   -1.164718   -0.536858
      2          6           0        1.479054   -1.478787   -0.429668
      3          7           0        0.721277   -0.331644   -0.301783
      4          6           0       -0.663268   -0.186759   -0.209237
      5          6           0       -1.553343   -1.285729   -0.279366
      6          6           0       -2.927146   -1.067000   -0.182073
      7          6           0       -3.416367    0.235916   -0.016201
      8          7           0       -4.864574    0.457079    0.085546
      9          8           0       -5.607375   -0.537797    0.019330
     10          8           0       -5.260734    1.627434    0.232061
     11          6           0       -2.550467    1.336293    0.054721
     12          6           0       -1.178726    1.121639   -0.042019
     13          1           0       -0.489386    1.971771    0.009719
     14          1           0       -2.968214    2.336769    0.183823
     15          1           0       -3.636080   -1.896220   -0.232622
     16          1           0       -1.145647   -2.289128   -0.406814
     17          1           0        1.323771    0.501943   -0.206425
     18          8           0        1.052428   -2.631422   -0.508227
     19          7           0        3.357056    0.186139   -0.087155
     20          6           0        4.296774    0.859839   -1.009498
     21          6           0        4.348235    2.377819   -0.823457
     22          1           0        4.981388    2.827536   -1.606766
     23          1           0        3.337625    2.813210   -0.903294
     24          1           0        4.774260    2.674878    0.149134
     25          1           0        5.322320    0.431234   -0.922369
     26          1           0        3.950648    0.646096   -2.035864
     27          6           0        3.864142    0.174343    1.301393
     28          6           0        2.834966   -0.281524    2.337077
     29          1           0        3.285523   -0.243391    3.343134
     30          1           0        1.946640    0.371980    2.336687
     31          1           0        2.497615   -1.318118    2.168046
     32          1           0        4.773285   -0.469443    1.369345
     33          1           0        4.184333    1.200154    1.548346
     34          1           0        3.527099   -1.969790    0.000273
     35          1           0        3.244479   -1.284218   -1.604809
 ---------------------------------------------------------------------
 Rotational constants (GHZ):           0.8978839           0.1654546           0.1530175
 Standard basis: 6-311+G(2d,p) (5D, 7F)
 There are   624 symmetry adapted cartesian basis functions of A   symmetry.
 There are   588 symmetry adapted basis functions of A   symmetry.
   588 basis functions,   892 primitive gaussians,   624 cartesian basis functions
    67 alpha electrons       67 beta electrons
       nuclear repulsion energy      1291.5066265491 Hartrees.
 NAtoms=   35 NActive=   35 NUniq=   35 SFac= 1.00D+00 NAtFMM=   60 NAOKFM=F Big=F
 Integral buffers will be    131072 words long.
 Raffenetti 2 integral format.
 Two-electron integral symmetry is turned on.
 One-electron integrals computed using PRISM.
 NBasis=   588 RedAO= T EigKep=  2.77D-06  NBF=   588
 NBsUse=   586 1.00D-06 EigRej=  9.94D-07 NBFU=   586
 ExpMin= 4.38D-02 ExpMax= 8.59D+03 ExpMxC= 1.30D+03 IAcc=3 IRadAn=         5 AccDes= 0.00D+00
 Harris functional with IExCor= 1009 and IRadAn=       5 diagonalized for initial guess.
 HarFok:  IExCor= 1009 AccDes= 0.00D+00 IRadAn=         5 IDoV= 1 UseB2=F ITyADJ=14
 ICtDFT=  3500011 ScaDFX=  1.000000  1.000000  1.000000  1.000000
 FoFCou: FMM=F IPFlag=           0 FMFlag=      100000 FMFlg1=           0
         NFxFlg=           0 DoJE=T BraDBF=F KetDBF=T FulRan=T
         wScrn=  0.000000 ICntrl=       500 IOpCl=  0 I1Cent=   200000004 NGrid=           0
         NMat0=    1 NMatS0=      1 NMatT0=    0 NMatD0=    1 NMtDS0=    0 NMtDT0=    0
 Petite list used in FoFCou.
 Requested convergence on RMS density matrix=1.00D-08 within 128 cycles.
 Requested convergence on MAX density matrix=1.00D-06.
 Requested convergence on             energy=1.00D-06.
 No special actions if energy rises.
 EnCoef did     2 forward-backward iterations
 EnCoef did   100 forward-backward iterations
 EnCoef did     5 forward-backward iterations
 EnCoef did     5 forward-backward iterations
 SCF Done:  E(RPBE-PBE) =  -856.609741012     A.U. after   19 cycles
            NFock= 19  Conv=0.87D-08     -V/T= 2.0037

 **********************************************************************

            Population analysis using the SCF Density.

 **********************************************************************

 Orbital symmetries:
       Occupied  (A) (A) (A) (A) (A) (A) (A) (A) (A) (A) (A) (A)
                 (A) (A) (A) (A) (A) (A) (A) (A) (A) (A) (A) (A)
                 (A) (A) (A) (A) (A) (A) (A) (A) (A) (A) (A) (A)
                 (A) (A) (A) (A) (A) (A) (A) (A) (A) (A) (A) (A)
                 (A) (A) (A) (A) (A) (A) (A) (A) (A) (A) (A) (A)
                 (A) (A) (A) (A) (A) (A) (A)
       Virtual   (A) (A) (A) (A) (A) (A) (A) (A) (A) (A) (A) (A)
                 (A) (A) (A) (A) (A) (A) (A) (A) (A) (A) (A) (A)
                 (A) (A) (A) (A) (A) (A) (A) (A) (A) (A) (A) (A)
                 (A) (A) (A) (A) (A) (A) (A) (A) (A) (A) (A) (A)
                 (A) (A) (A) (A) (A) (A) (A) (A) (A) (A) (A) (A)
                 (A) (A) (A) (A) (A) (A) (A) (A) (A) (A) (A) (A)
                 (A) (A) (A) (A) (A) (A) (A) (A) (A) (A) (A) (A)
                 (A) (A) (A) (A) (A) (A) (A) (A) (A) (A) (A) (A)
                 (A) (A) (A) (A) (A) (A) (A) (A) (A) (A) (A) (A)
                 (A) (A) (A) (A) (A) (A) (A) (A) (A) (A) (A) (A)
                 (A) (A) (A) (A) (A) (A) (A) (A) (A) (A) (A) (A)
                 (A) (A) (A) (A) (A) (A) (A) (A) (A) (A) (A) (A)
                 (A) (A) (A) (A) (A) (A) (A) (A) (A) (A) (A) (A)
                 (A) (A) (A) (A) (A) (A) (A) (A) (A) (A) (A) (A)
                 (A) (A) (A) (A) (A) (A) (A) (A) (A) (A) (A) (A)
                 (A) (A) (A) (A) (A) (A) (A) (A) (A) (A) (A) (A)
                 (A) (A) (A) (A) (A) (A) (A) (A) (A) (A) (A) (A)
                 (A) (A) (A) (A) (A) (A) (A) (A) (A) (A) (A) (A)
                 (A) (A) (A) (A) (A) (A) (A) (A) (A) (A) (A) (A)
                 (A) (A) (A) (A) (A) (A) (A) (A) (A) (A) (A) (A)
                 (A) (A) (A) (A) (A) (A) (A) (A) (A) (A) (A) (A)
                 (A) (A) (A) (A) (A) (A) (A) (A) (A) (A) (A) (A)
                 (A) (A) (A) (A) (A) (A) (A) (A) (A) (A) (A) (A)
                 (A) (A) (A) (A) (A) (A) (A) (A) (A) (A) (A) (A)
                 (A) (A) (A) (A) (A) (A) (A) (A) (A) (A) (A) (A)
                 (A) (A) (A) (A) (A) (A) (A) (A) (A) (A) (A) (A)
                 (A) (A) (A) (A) (A) (A) (A) (A) (A) (A) (A) (A)
                 (A) (A) (A) (A) (A) (A) (A) (A) (A) (A) (A) (A)
                 (A) (A) (A) (A) (A) (A) (A) (A) (A) (A) (A) (A)
                 (A) (A) (A) (A) (A) (A) (A) (A) (A) (A) (A) (A)
                 (A) (A) (A) (A) (A) (A) (A) (A) (A) (A) (A) (A)
                 (A) (A) (A) (A) (A) (A) (A) (A) (A) (A) (A) (A)
                 (A) (A) (A) (A) (A) (A) (A) (A) (A) (A) (A) (A)
                 (A) (A) (A) (A) (A) (A) (A) (A) (A) (A) (A) (A)
                 (A) (A) (A) (A) (A) (A) (A) (A) (A) (A) (A) (A)
                 (A) (A) (A) (A) (A) (A) (A) (A) (A) (A) (A) (A)
                 (A) (A) (A) (A) (A) (A) (A) (A) (A) (A) (A) (A)
                 (A) (A) (A) (A) (A) (A) (A) (A) (A) (A) (A) (A)
                 (A) (A) (A) (A) (A) (A) (A) (A) (A) (A) (A) (A)
                 (A) (A) (A) (A) (A) (A) (A) (A) (A) (A) (A) (A)
                 (A) (A) (A) (A) (A) (A) (A) (A) (A) (A) (A) (A)
                 (A) (A) (A) (A) (A) (A) (A) (A) (A) (A) (A) (A)
                 (A) (A) (A) (A) (A) (A) (A) (A) (A) (A) (A) (A)
                 (A) (A) (A)
 The electronic state is 1-A.
 Alpha  occ. eigenvalues --  -18.77182 -18.77175 -18.73770 -14.19918 -14.04164
 Alpha  occ. eigenvalues --  -14.01606  -9.99988  -9.96229  -9.94489  -9.93749
 Alpha  occ. eigenvalues --   -9.93397  -9.93138  -9.91748  -9.91655  -9.91450
 Alpha  occ. eigenvalues --   -9.90647  -9.89645  -9.89395  -1.11885  -0.96981
 Alpha  occ. eigenvalues --   -0.95733  -0.88906  -0.87060  -0.80813  -0.73712
 Alpha  occ. eigenvalues --   -0.71663  -0.70532  -0.70255  -0.65964  -0.63078
 Alpha  occ. eigenvalues --   -0.58917  -0.58755  -0.56123  -0.54486  -0.52524
 Alpha  occ. eigenvalues --   -0.51088  -0.49418  -0.47368  -0.46973  -0.46324
 Alpha  occ. eigenvalues --   -0.45505  -0.43701  -0.42483  -0.41819  -0.41623
 Alpha  occ. eigenvalues --   -0.40783  -0.40440  -0.39820  -0.38944  -0.37596
 Alpha  occ. eigenvalues --   -0.37125  -0.36674  -0.35769  -0.34930  -0.34010
 Alpha  occ. eigenvalues --   -0.33186  -0.33083  -0.32876  -0.31525  -0.29644
 Alpha  occ. eigenvalues --   -0.27405  -0.25953  -0.25556  -0.24069  -0.23886
 Alpha  occ. eigenvalues --   -0.22521  -0.21352
 Alpha virt. eigenvalues --   -0.12284  -0.06793  -0.06036  -0.03282  -0.02102
 Alpha virt. eigenvalues --   -0.01667  -0.01060  -0.00531   0.00500   0.00919
 Alpha virt. eigenvalues --    0.01668   0.02040   0.02242   0.02688   0.02834
 Alpha virt. eigenvalues --    0.03385   0.04602   0.04693   0.04844   0.05132
 Alpha virt. eigenvalues --    0.05614   0.06378   0.06796   0.06915   0.07160
 Alpha virt. eigenvalues --    0.07509   0.07799   0.08558   0.09079   0.09199
 Alpha virt. eigenvalues --    0.09377   0.10340   0.10504   0.10711   0.10856
 Alpha virt. eigenvalues --    0.11568   0.11801   0.12362   0.12598   0.12870
 Alpha virt. eigenvalues --    0.13293   0.13607   0.13911   0.13941   0.14662
 Alpha virt. eigenvalues --    0.14898   0.15177   0.15387   0.15909   0.16318
 Alpha virt. eigenvalues --    0.16533   0.16740   0.17558   0.17588   0.17880
 Alpha virt. eigenvalues --    0.17961   0.18049   0.18723   0.18895   0.19361
 Alpha virt. eigenvalues --    0.19618   0.19962   0.20313   0.20588   0.20877
 Alpha virt. eigenvalues --    0.21056   0.21335   0.21608   0.22020   0.22327
 Alpha virt. eigenvalues --    0.22486   0.22943   0.23418   0.23676   0.24157
 Alpha virt. eigenvalues --    0.24266   0.25017   0.25191   0.25490   0.26153
 Alpha virt. eigenvalues --    0.26412   0.26829   0.26940   0.27393   0.27754
 Alpha virt. eigenvalues --    0.27942   0.28729   0.29111   0.29578   0.30429
 Alpha virt. eigenvalues --    0.30960   0.31921   0.32374   0.32769   0.33192
 Alpha virt. eigenvalues --    0.33498   0.33985   0.34403   0.34994   0.35753
 Alpha virt. eigenvalues --    0.36616   0.36873   0.37408   0.38181   0.39813
 Alpha virt. eigenvalues --    0.40188   0.40984   0.41169   0.42346   0.42752
 Alpha virt. eigenvalues --    0.42773   0.44291   0.44533   0.44772   0.45863
 Alpha virt. eigenvalues --    0.46077   0.47299   0.47514   0.47975   0.48683
 Alpha virt. eigenvalues --    0.49402   0.49731   0.50246   0.51324   0.51605
 Alpha virt. eigenvalues --    0.51984   0.52630   0.53011   0.53464   0.53923
 Alpha virt. eigenvalues --    0.55104   0.56108   0.56443   0.56908   0.57308
 Alpha virt. eigenvalues --    0.57383   0.58276   0.58590   0.59322   0.59708
 Alpha virt. eigenvalues --    0.60315   0.60813   0.61335   0.62165   0.62424
 Alpha virt. eigenvalues --    0.63215   0.64050   0.64217   0.64736   0.65116
 Alpha virt. eigenvalues --    0.65222   0.65937   0.66254   0.67271   0.67599
 Alpha virt. eigenvalues --    0.68513   0.68739   0.69167   0.69317   0.70058
 Alpha virt. eigenvalues --    0.71000   0.71956   0.72787   0.72985   0.74154
 Alpha virt. eigenvalues --    0.74635   0.75591   0.75792   0.76254   0.76902
 Alpha virt. eigenvalues --    0.78097   0.78474   0.78842   0.79253   0.80259
 Alpha virt. eigenvalues --    0.80667   0.81526   0.81946   0.83340   0.83533
 Alpha virt. eigenvalues --    0.84835   0.85697   0.86247   0.87341   0.87691
 Alpha virt. eigenvalues --    0.88297   0.89702   0.90322   0.92834   0.93921
 Alpha virt. eigenvalues --    0.94519   0.95795   0.96118   0.96328   0.98046
 Alpha virt. eigenvalues --    0.99380   1.00418   1.00752   1.03039   1.03407
 Alpha virt. eigenvalues --    1.03871   1.04411   1.05395   1.06146   1.07099
 Alpha virt. eigenvalues --    1.07765   1.08041   1.08405   1.09419   1.10409
 Alpha virt. eigenvalues --    1.11063   1.11541   1.12892   1.13382   1.14114
 Alpha virt. eigenvalues --    1.14480   1.15175   1.15440   1.15599   1.16452
 Alpha virt. eigenvalues --    1.17108   1.17777   1.18353   1.19629   1.19951
 Alpha virt. eigenvalues --    1.21097   1.22327   1.23148   1.24318   1.24697
 Alpha virt. eigenvalues --    1.25327   1.25796   1.26293   1.26828   1.27518
 Alpha virt. eigenvalues --    1.27794   1.29385   1.30076   1.30836   1.31719
 Alpha virt. eigenvalues --    1.32539   1.32732   1.35229   1.36922   1.38887
 Alpha virt. eigenvalues --    1.39614   1.40404   1.43284   1.44640   1.45450
 Alpha virt. eigenvalues --    1.45886   1.46614   1.47602   1.48377   1.50013
 Alpha virt. eigenvalues --    1.51142   1.52460   1.54738   1.55881   1.57006
 Alpha virt. eigenvalues --    1.57617   1.58695   1.59515   1.60582   1.62353
 Alpha virt. eigenvalues --    1.63338   1.64171   1.65479   1.66461   1.66798
 Alpha virt. eigenvalues --    1.68046   1.68143   1.69160   1.69395   1.71176
 Alpha virt. eigenvalues --    1.72067   1.72105   1.74315   1.74873   1.75629
 Alpha virt. eigenvalues --    1.76862   1.77384   1.79010   1.80173   1.81773
 Alpha virt. eigenvalues --    1.82625   1.83250   1.84964   1.89269   1.89757
 Alpha virt. eigenvalues --    1.90266   1.91760   1.92404   1.94964   1.96755
 Alpha virt. eigenvalues --    1.97425   1.99467   2.00180   2.04460   2.07057
 Alpha virt. eigenvalues --    2.07590   2.08755   2.09376   2.11306   2.12183
 Alpha virt. eigenvalues --    2.13255   2.13874   2.16613   2.19047   2.21344
 Alpha virt. eigenvalues --    2.21842   2.23007   2.23724   2.24243   2.25497
 Alpha virt. eigenvalues --    2.26409   2.27156   2.29338   2.30848   2.31632
 Alpha virt. eigenvalues --    2.33429   2.34160   2.35167   2.36632   2.37999
 Alpha virt. eigenvalues --    2.41108   2.42606   2.43023   2.45240   2.45800
 Alpha virt. eigenvalues --    2.48950   2.49478   2.52022   2.53059   2.54127
 Alpha virt. eigenvalues --    2.58571   2.59380   2.60546   2.62198   2.62705
 Alpha virt. eigenvalues --    2.62830   2.67474   2.69031   2.70289   2.72056
 Alpha virt. eigenvalues --    2.72677   2.73110   2.73758   2.74131   2.75138
 Alpha virt. eigenvalues --    2.77404   2.77706   2.77953   2.78438   2.80181
 Alpha virt. eigenvalues --    2.82646   2.83013   2.86241   2.87947   2.88339
 Alpha virt. eigenvalues --    2.92804   2.96353   2.99489   3.00476   3.00905
 Alpha virt. eigenvalues --    3.03163   3.04279   3.05221   3.06514   3.07227
 Alpha virt. eigenvalues --    3.09483   3.12277   3.13239   3.14976   3.15079
 Alpha virt. eigenvalues --    3.17443   3.19663   3.20454   3.21001   3.21777
 Alpha virt. eigenvalues --    3.22717   3.24450   3.25919   3.26554   3.27781
 Alpha virt. eigenvalues --    3.28528   3.30694   3.31882   3.32731   3.34141
 Alpha virt. eigenvalues --    3.34626   3.35103   3.36416   3.37348   3.38938
 Alpha virt. eigenvalues --    3.39796   3.40364   3.41027   3.42049   3.43024
 Alpha virt. eigenvalues --    3.44201   3.45265   3.46785   3.47033   3.48136
 Alpha virt. eigenvalues --    3.48253   3.48916   3.49710   3.50610   3.52267
 Alpha virt. eigenvalues --    3.52757   3.54319   3.55889   3.56140   3.56834
 Alpha virt. eigenvalues --    3.58037   3.59598   3.60434   3.62813   3.64731
 Alpha virt. eigenvalues --    3.66808   3.68271   3.69773   3.70761   3.71118
 Alpha virt. eigenvalues --    3.72968   3.76588   3.77384   3.78812   3.82327
 Alpha virt. eigenvalues --    3.84287   3.84991   3.86095   3.89461   3.92174
 Alpha virt. eigenvalues --    3.94276   3.96232   4.00320   4.06088   4.07286
 Alpha virt. eigenvalues --    4.09055   4.09388   4.10878   4.13366   4.13666
 Alpha virt. eigenvalues --    4.14150   4.15776   4.16505   4.24479   4.30637
 Alpha virt. eigenvalues --    4.32022   4.32633   4.34458   4.42330   4.53941
 Alpha virt. eigenvalues --    4.66505   4.67178   4.74212   4.74789   4.83521
 Alpha virt. eigenvalues --    4.87405   4.88807   4.89721   4.90636   4.91244
 Alpha virt. eigenvalues --    4.94735   4.94830   4.95369   5.00495   5.00775
 Alpha virt. eigenvalues --    5.04253   5.14206   5.15170   5.20701   5.25064
 Alpha virt. eigenvalues --    5.27092   5.30925   5.37562   5.40083   5.42751
 Alpha virt. eigenvalues --    5.47757   5.48011   5.63903   5.85126   6.00895
 Alpha virt. eigenvalues --    6.18267   6.60176   6.62362   6.69429   6.69573
 Alpha virt. eigenvalues --    6.72279   6.78615   6.79901   6.83667   6.90637
 Alpha virt. eigenvalues --    6.93812   7.05511   7.12594   7.15286   7.16439
 Alpha virt. eigenvalues --    7.17178  23.44335  23.59670  23.66170  23.68922
 Alpha virt. eigenvalues --   23.71511  23.75237  23.78285  23.78766  23.80746
 Alpha virt. eigenvalues --   23.85311  23.87761  23.92807  35.21667  35.23708
 Alpha virt. eigenvalues --   35.36975  49.56415  49.65306  49.66386
          Condensed to atoms (all electrons):
               1          2          3          4          5          6
     1  C    9.423232  -2.791092   0.038747  -0.454188  -0.122795   0.083315
     2  C   -2.791092   7.659226   0.309739   0.145702   0.045860  -0.093490
     3  N    0.038747   0.309739   6.837214  -0.105160  -0.072083  -0.022982
     4  C   -0.454188   0.145702  -0.105160   7.109278   0.692949  -0.502833
     5  C   -0.122795   0.045860  -0.072083   0.692949   7.026483   0.968445
     6  C    0.083315  -0.093490  -0.022982  -0.502833   0.968445   7.063788
     7  C   -0.014608  -0.132358  -0.031805  -1.089205  -1.351155   0.322876
     8  N   -0.000230   0.000299   0.003281  -0.089753  -0.053418  -0.095748
     9  O    0.000055   0.000620  -0.000485   0.048205   0.116164   0.151885
    10  O    0.000172   0.001350  -0.000376   0.050740   0.039683   0.075359
    11  C    0.083787  -0.015357   0.064997  -0.299107  -0.500191  -1.193070
    12  C   -0.014261  -0.141733  -0.110749   0.292736  -1.181175  -0.851986
    13  H    0.000645   0.003256  -0.004822  -0.071119   0.005861  -0.002420
    14  H    0.000157  -0.000020  -0.000339   0.017176   0.001942   0.007838
    15  H    0.000445   0.003963  -0.000039   0.026454   0.006706   0.393769
    16  H    0.007992   0.005973  -0.001638  -0.091273   0.409958   0.001852
    17  H    0.069540  -0.088723   0.360055  -0.106961   0.011236   0.003602
    18  O    0.002146   0.410001   0.036830  -0.185986   0.037153   0.026340
    19  N   -0.369703   0.331298  -0.130289   0.070054  -0.001386  -0.002824
    20  C   -0.045005  -0.046047   0.007369  -0.036975  -0.007028  -0.002659
    21  C   -0.020434  -0.023065   0.003687  -0.004515  -0.002496  -0.000204
    22  H    0.001989   0.001747   0.000029   0.000344   0.000034   0.000002
    23  H    0.005995  -0.004892  -0.002435  -0.001448  -0.000630  -0.000064
    24  H   -0.001621   0.000315   0.000181   0.000116   0.000153   0.000013
    25  H    0.011380  -0.009919  -0.003003   0.002080  -0.000044   0.000007
    26  H    0.025975  -0.015303   0.004036  -0.002136   0.001335   0.000206
    27  C   -0.120667   0.034252  -0.033533  -0.011645  -0.015745  -0.004283
    28  C   -0.090476   0.031311   0.049694  -0.031087   0.027063   0.003708
    29  H    0.001192  -0.000348  -0.000502   0.002018  -0.000464   0.000020
    30  H    0.008336  -0.008571  -0.003784  -0.001895   0.004075   0.000938
    31  H   -0.002918   0.013120  -0.005553   0.000165  -0.002750  -0.000702
    32  H   -0.026230   0.011893  -0.003745   0.002647   0.000175   0.000042
    33  H    0.036167  -0.014070   0.001557   0.000643   0.000054   0.000019
    34  H    0.536545  -0.177495  -0.002425   0.000381  -0.001345   0.000014
    35  H    0.488836  -0.093719   0.006699   0.003135   0.002334   0.000514
               7          8          9         10         11         12
     1  C   -0.014608  -0.000230   0.000055   0.000172   0.083787  -0.014261
     2  C   -0.132358   0.000299   0.000620   0.001350  -0.015357  -0.141733
     3  N   -0.031805   0.003281  -0.000485  -0.000376   0.064997  -0.110749
     4  C   -1.089205  -0.089753   0.048205   0.050740  -0.299107   0.292736
     5  C   -1.351155  -0.053418   0.116164   0.039683  -0.500191  -1.181175
     6  C    0.322876  -0.095748   0.151885   0.075359  -1.193070  -0.851986
     7  C    9.206543   0.119770  -0.403336  -0.392619   0.160523  -0.647702
     8  N    0.119770   6.487193   0.384283   0.358229  -0.080237   0.103197
     9  O   -0.403336   0.384283   7.801479  -0.050721   0.085883  -0.028445
    10  O   -0.392619   0.358229  -0.050721   7.823955   0.142296   0.057312
    11  C    0.160523  -0.080237   0.085883   0.142296   7.533199  -0.008708
    12  C   -0.647702   0.103197  -0.028445   0.057312  -0.008708   8.578822
    13  H    0.013543  -0.000351   0.000067   0.000125   0.002970   0.380828
    14  H   -0.046777  -0.018592   0.000174   0.011184   0.403533  -0.032442
    15  H   -0.082704  -0.018729   0.010772   0.000364   0.012883  -0.011093
    16  H    0.005473   0.000112   0.000063   0.000071  -0.007722   0.011096
    17  H    0.002564  -0.000025   0.000001   0.000005   0.017306   0.020111
    18  O   -0.005204  -0.000053   0.000003  -0.000001   0.004446  -0.002069
    19  N    0.002546  -0.000004  -0.000004  -0.000002  -0.005546  -0.016675
    20  C   -0.003562   0.000027   0.000002   0.000003   0.000636   0.005125
    21  C    0.000142   0.000000  -0.000000  -0.000000   0.004402   0.001250
    22  H   -0.000001  -0.000000  -0.000000  -0.000000  -0.000088  -0.000207
    23  H    0.000018  -0.000000  -0.000000  -0.000000   0.001455   0.002270
    24  H    0.000003  -0.000000  -0.000000  -0.000000  -0.000133  -0.000325
    25  H    0.000007  -0.000000  -0.000000  -0.000000  -0.000032  -0.000301
    26  H    0.000038  -0.000000   0.000000  -0.000000  -0.000303   0.000183
    27  C   -0.003815   0.000030   0.000006   0.000002   0.004551   0.006756
    28  C    0.004663  -0.000018  -0.000013   0.000001  -0.003290   0.000031
    29  H    0.000004  -0.000000   0.000000  -0.000000   0.000010  -0.000210
    30  H    0.000253   0.000002   0.000000   0.000000  -0.000282   0.001675
    31  H   -0.000242   0.000000   0.000000   0.000000   0.000340  -0.000217
    32  H    0.000015  -0.000000  -0.000000   0.000000  -0.000100  -0.000255
    33  H   -0.000011   0.000000  -0.000000  -0.000000   0.000015  -0.000903
    34  H   -0.000045   0.000000  -0.000000  -0.000000   0.000072   0.000356
    35  H   -0.000006   0.000000  -0.000000  -0.000000  -0.000551  -0.001588
              13         14         15         16         17         18
     1  C    0.000645   0.000157   0.000445   0.007992   0.069540   0.002146
     2  C    0.003256  -0.000020   0.003963   0.005973  -0.088723   0.410001
     3  N   -0.004822  -0.000339  -0.000039  -0.001638   0.360055   0.036830
     4  C   -0.071119   0.017176   0.026454  -0.091273  -0.106961  -0.185986
     5  C    0.005861   0.001942   0.006706   0.409958   0.011236   0.037153
     6  C   -0.002420   0.007838   0.393769   0.001852   0.003602   0.026340
     7  C    0.013543  -0.046777  -0.082704   0.005473   0.002564  -0.005204
     8  N   -0.000351  -0.018592  -0.018729   0.000112  -0.000025  -0.000053
     9  O    0.000067   0.000174   0.010772   0.000063   0.000001   0.000003
    10  O    0.000125   0.011184   0.000364   0.000071   0.000005  -0.000001
    11  C    0.002970   0.403533   0.012883  -0.007722   0.017306   0.004446
    12  C    0.380828  -0.032442  -0.011093   0.011096   0.020111  -0.002069
    13  H    0.566213  -0.007244   0.000086  -0.000355   0.011635   0.000078
    14  H   -0.007244   0.516835  -0.000297   0.000075  -0.000084  -0.000006
    15  H    0.000086  -0.000297   0.515342  -0.005793   0.000024  -0.000078
    16  H   -0.000355   0.000075  -0.005793   0.493854  -0.000259   0.003993
    17  H    0.011635  -0.000084   0.000024  -0.000259   0.398331   0.006230
    18  O    0.000078  -0.000006  -0.000078   0.003993   0.006230   8.108400
    19  N   -0.002709   0.000029  -0.000007   0.000240   0.009392   0.000664
    20  C    0.000071   0.000006   0.000004   0.000065  -0.006314  -0.000457
    21  C    0.000069  -0.000004   0.000001  -0.000009   0.000799  -0.000391
    22  H   -0.000001   0.000000   0.000000  -0.000000  -0.000046   0.000001
    23  H    0.000028  -0.000000  -0.000000  -0.000000   0.001861   0.000004
    24  H   -0.000001   0.000000  -0.000000   0.000000  -0.000091  -0.000003
    25  H   -0.000002   0.000000  -0.000000   0.000000   0.000758   0.000112
    26  H    0.000008  -0.000000   0.000000   0.000001  -0.000762  -0.000140
    27  C    0.002168  -0.000036   0.000009   0.000011   0.006760  -0.001155
    28  C   -0.001930   0.000041  -0.000002  -0.000114  -0.003411  -0.009855
    29  H    0.000003  -0.000000  -0.000000   0.000001   0.000184  -0.000065
    30  H   -0.000015   0.000002  -0.000000   0.000010  -0.000687   0.000266
    31  H    0.000011  -0.000000  -0.000000  -0.000018   0.000199   0.000051
    32  H   -0.000004   0.000000  -0.000000   0.000000   0.000326   0.000103
    33  H    0.000008  -0.000000   0.000000   0.000000  -0.000378   0.000051
    34  H   -0.000004   0.000000  -0.000000   0.000026   0.001397   0.001649
    35  H   -0.000001   0.000000  -0.000000   0.000008   0.000846   0.001417
              19         20         21         22         23         24
     1  C   -0.369703  -0.045005  -0.020434   0.001989   0.005995  -0.001621
     2  C    0.331298  -0.046047  -0.023065   0.001747  -0.004892   0.000315
     3  N   -0.130289   0.007369   0.003687   0.000029  -0.002435   0.000181
     4  C    0.070054  -0.036975  -0.004515   0.000344  -0.001448   0.000116
     5  C   -0.001386  -0.007028  -0.002496   0.000034  -0.000630   0.000153
     6  C   -0.002824  -0.002659  -0.000204   0.000002  -0.000064   0.000013
     7  C    0.002546  -0.003562   0.000142  -0.000001   0.000018   0.000003
     8  N   -0.000004   0.000027   0.000000  -0.000000  -0.000000  -0.000000
     9  O   -0.000004   0.000002  -0.000000  -0.000000  -0.000000  -0.000000
    10  O   -0.000002   0.000003  -0.000000  -0.000000  -0.000000  -0.000000
    11  C   -0.005546   0.000636   0.004402  -0.000088   0.001455  -0.000133
    12  C   -0.016675   0.005125   0.001250  -0.000207   0.002270  -0.000325
    13  H   -0.002709   0.000071   0.000069  -0.000001   0.000028  -0.000001
    14  H    0.000029   0.000006  -0.000004   0.000000  -0.000000   0.000000
    15  H   -0.000007   0.000004   0.000001   0.000000  -0.000000  -0.000000
    16  H    0.000240   0.000065  -0.000009  -0.000000  -0.000000   0.000000
    17  H    0.009392  -0.006314   0.000799  -0.000046   0.001861  -0.000091
    18  O    0.000664  -0.000457  -0.000391   0.000001   0.000004  -0.000003
    19  N    7.211058   0.161871  -0.044796   0.007819   0.002113   0.000535
    20  C    0.161871   5.517892  -0.053044  -0.024376  -0.053410  -0.075784
    21  C   -0.044796  -0.053044   5.549967   0.383977   0.428912   0.445393
    22  H    0.007819  -0.024376   0.383977   0.532511  -0.025261  -0.026357
    23  H    0.002113  -0.053410   0.428912  -0.025261   0.538594  -0.035386
    24  H    0.000535  -0.075784   0.445393  -0.026357  -0.035386   0.549122
    25  H   -0.062438   0.433040  -0.061531  -0.001420   0.007171  -0.006947
    26  H   -0.073690   0.407941  -0.027351  -0.005772  -0.007215   0.007989
    27  C    0.175754  -0.054881  -0.024145   0.004906  -0.004819  -0.015485
    28  C   -0.036245  -0.039136   0.007101  -0.000524  -0.001135   0.006271
    29  H    0.003949  -0.002317   0.000392  -0.000002   0.000004   0.000042
    30  H    0.014519  -0.001716  -0.000775  -0.000005   0.000015   0.000091
    31  H   -0.004645   0.001629  -0.000502   0.000002   0.000012  -0.000012
    32  H   -0.051042  -0.018919  -0.004184  -0.000000   0.000145   0.000516
    33  H   -0.071237   0.000888  -0.001762  -0.000179  -0.000047   0.007313
    34  H   -0.028298  -0.004273  -0.000194   0.000027  -0.000004   0.000054
    35  H   -0.073104  -0.035494   0.004461  -0.000081   0.000071   0.000062
              25         26         27         28         29         30
     1  C    0.011380   0.025975  -0.120667  -0.090476   0.001192   0.008336
     2  C   -0.009919  -0.015303   0.034252   0.031311  -0.000348  -0.008571
     3  N   -0.003003   0.004036  -0.033533   0.049694  -0.000502  -0.003784
     4  C    0.002080  -0.002136  -0.011645  -0.031087   0.002018  -0.001895
     5  C   -0.000044   0.001335  -0.015745   0.027063  -0.000464   0.004075
     6  C    0.000007   0.000206  -0.004283   0.003708   0.000020   0.000938
     7  C    0.000007   0.000038  -0.003815   0.004663   0.000004   0.000253
     8  N   -0.000000  -0.000000   0.000030  -0.000018  -0.000000   0.000002
     9  O   -0.000000   0.000000   0.000006  -0.000013   0.000000   0.000000
    10  O   -0.000000  -0.000000   0.000002   0.000001  -0.000000   0.000000
    11  C   -0.000032  -0.000303   0.004551  -0.003290   0.000010  -0.000282
    12  C   -0.000301   0.000183   0.006756   0.000031  -0.000210   0.001675
    13  H   -0.000002   0.000008   0.002168  -0.001930   0.000003  -0.000015
    14  H    0.000000  -0.000000  -0.000036   0.000041  -0.000000   0.000002
    15  H   -0.000000   0.000000   0.000009  -0.000002  -0.000000  -0.000000
    16  H    0.000000   0.000001   0.000011  -0.000114   0.000001   0.000010
    17  H    0.000758  -0.000762   0.006760  -0.003411   0.000184  -0.000687
    18  O    0.000112  -0.000140  -0.001155  -0.009855  -0.000065   0.000266
    19  N   -0.062438  -0.073690   0.175754  -0.036245   0.003949   0.014519
    20  C    0.433040   0.407941  -0.054881  -0.039136  -0.002317  -0.001716
    21  C   -0.061531  -0.027351  -0.024145   0.007101   0.000392  -0.000775
    22  H   -0.001420  -0.005772   0.004906  -0.000524  -0.000002  -0.000005
    23  H    0.007171  -0.007215  -0.004819  -0.001135   0.000004   0.000015
    24  H   -0.006947   0.007989  -0.015485   0.006271   0.000042   0.000091
    25  H    0.588406  -0.039441  -0.004896   0.001767   0.000012   0.000073
    26  H   -0.039441   0.583146   0.003447   0.002231   0.000023   0.000036
    27  C   -0.004896   0.003447   5.728123  -0.162608  -0.009267  -0.086062
    28  C    0.001767   0.002231  -0.162608   5.565775   0.374996   0.449582
    29  H    0.000012   0.000023  -0.009267   0.374996   0.538418  -0.025230
    30  H    0.000073   0.000036  -0.086062   0.449582  -0.025230   0.527003
    31  H   -0.000041  -0.000010  -0.057936   0.430026  -0.022925  -0.034215
    32  H    0.015657   0.000114   0.405872  -0.014607  -0.004831   0.006811
    33  H   -0.003680   0.000750   0.425280  -0.047376  -0.004944  -0.006767
    34  H    0.003896   0.000303  -0.003788   0.000077  -0.000044   0.000066
    35  H    0.002876   0.009556  -0.001230   0.007150   0.000021  -0.000120
              31         32         33         34         35
     1  C   -0.002918  -0.026230   0.036167   0.536545   0.488836
     2  C    0.013120   0.011893  -0.014070  -0.177495  -0.093719
     3  N   -0.005553  -0.003745   0.001557  -0.002425   0.006699
     4  C    0.000165   0.002647   0.000643   0.000381   0.003135
     5  C   -0.002750   0.000175   0.000054  -0.001345   0.002334
     6  C   -0.000702   0.000042   0.000019   0.000014   0.000514
     7  C   -0.000242   0.000015  -0.000011  -0.000045  -0.000006
     8  N    0.000000  -0.000000   0.000000   0.000000   0.000000
     9  O    0.000000  -0.000000  -0.000000  -0.000000  -0.000000
    10  O    0.000000   0.000000  -0.000000  -0.000000  -0.000000
    11  C    0.000340  -0.000100   0.000015   0.000072  -0.000551
    12  C   -0.000217  -0.000255  -0.000903   0.000356  -0.001588
    13  H    0.000011  -0.000004   0.000008  -0.000004  -0.000001
    14  H   -0.000000   0.000000  -0.000000   0.000000   0.000000
    15  H   -0.000000  -0.000000   0.000000  -0.000000  -0.000000
    16  H   -0.000018   0.000000   0.000000   0.000026   0.000008
    17  H    0.000199   0.000326  -0.000378   0.001397   0.000846
    18  O    0.000051   0.000103   0.000051   0.001649   0.001417
    19  N   -0.004645  -0.051042  -0.071237  -0.028298  -0.073104
    20  C    0.001629  -0.018919   0.000888  -0.004273  -0.035494
    21  C   -0.000502  -0.004184  -0.001762  -0.000194   0.004461
    22  H    0.000002  -0.000000  -0.000179   0.000027  -0.000081
    23  H    0.000012   0.000145  -0.000047  -0.000004   0.000071
    24  H   -0.000012   0.000516   0.007313   0.000054   0.000062
    25  H   -0.000041   0.015657  -0.003680   0.003896   0.002876
    26  H   -0.000010   0.000114   0.000750   0.000303   0.009556
    27  C   -0.057936   0.405872   0.425280  -0.003788  -0.001230
    28  C    0.430026  -0.014607  -0.047376   0.000077   0.007150
    29  H   -0.022925  -0.004831  -0.004944  -0.000044   0.000021
    30  H   -0.034215   0.006811  -0.006767   0.000066  -0.000120
    31  H    0.518531  -0.007815   0.007843   0.000101   0.000087
    32  H   -0.007815   0.590532  -0.042829   0.010620   0.000904
    33  H    0.007843  -0.042829   0.589163   0.000066  -0.000542
    34  H    0.000101   0.010620   0.000066   0.507776  -0.025547
    35  H    0.000087   0.000904  -0.000542  -0.025547   0.537896
 Mulliken charges:
               1
     1  C   -0.752422
     2  C    0.646277
     3  N   -0.188366
     4  C    0.620466
     5  C   -0.084957
     6  C   -0.331287
     7  C    0.366173
     8  N   -0.099265
     9  O   -0.116659
    10  O   -0.117131
    11  C   -0.408592
    12  C   -0.410707
    13  H    0.103306
    14  H    0.146849
    15  H    0.147921
    16  H    0.166305
    17  H    0.284579
    18  O   -0.434476
    19  N   -0.017196
    20  C   -0.025172
    21  C   -0.561148
    22  H    0.150931
    23  H    0.148079
    24  H    0.143975
    25  H    0.126453
    26  H    0.124805
    27  C   -0.181932
    28  C   -0.519664
    29  H    0.149859
    30  H    0.156371
    31  H    0.168384
    32  H    0.128189
    33  H    0.124908
    34  H    0.180034
    35  H    0.165112
 Sum of Mulliken charges =  -0.00000
 Mulliken charges with hydrogens summed into heavy atoms:
               1
     1  C   -0.407276
     2  C    0.646277
     3  N    0.096213
     4  C    0.620466
     5  C    0.081348
     6  C   -0.183367
     7  C    0.366173
     8  N   -0.099265
     9  O   -0.116659
    10  O   -0.117131
    11  C   -0.261743
    12  C   -0.307401
    18  O   -0.434476
    19  N   -0.017196
    20  C    0.226086
    21  C   -0.118164
    27  C    0.071165
    28  C   -0.045051
 Electronic spatial extent (au):  <R**2>=           6982.0476
 Charge=             -0.0000 electrons
 Dipole moment (field-independent basis, Debye):
    X=              8.5191    Y=              2.3855    Z=              0.0635  Tot=              8.8470
 Quadrupole moment (field-independent basis, Debye-Ang):
   XX=           -130.5261   YY=           -114.1069   ZZ=           -106.1380
   XY=              8.6251   XZ=              1.1117   YZ=             -1.6630
 Traceless Quadrupole moment (field-independent basis, Debye-Ang):
   XX=            -13.6024   YY=              2.8168   ZZ=             10.7857
   XY=              8.6251   XZ=              1.1117   YZ=             -1.6630
 Octapole moment (field-independent basis, Debye-Ang**2):
  XXX=            277.8143  YYY=             25.5556  ZZZ=              0.7949  XYY=             -6.6541
  XXY=            -21.8530  XXZ=            -11.1396  XZZ=              5.2602  YZZ=              0.0998
  YYZ=              3.3612  XYZ=             -2.1996
 Hexadecapole moment (field-independent basis, Debye-Ang**3):
 XXXX=          -8762.7880 YYYY=          -1260.0975 ZZZZ=           -574.9505 XXXY=            156.6216
 XXXZ=             21.1655 YYYX=             43.8066 YYYZ=            -11.0809 ZZZX=             -6.9090
 ZZZY=              4.8907 XXYY=          -1475.1297 XXZZ=          -1275.7702 YYZZ=           -300.8105
 XXYZ=            -17.6003 YYXZ=              4.8803 ZZXY=             -3.6220
 N-N= 1.291506626549D+03 E-N=-4.582310967648D+03  KE= 8.534187239044D+02
 Calling FoFJK, ICntrl=      2527 FMM=F ISym2X=0 I1Cent= 0 IOpClX= 0 NMat=1 NMatS=1 NMatT=0.
 ***** Axes restored to original set *****
 -------------------------------------------------------------------
 Center     Atomic                   Forces (Hartrees/Bohr)
 Number     Number              X              Y              Z
 -------------------------------------------------------------------
      1        6          -0.000296144    0.000045283    0.000083629
      2        6          -0.003236732    0.001467781    0.001249477
      3        7          -0.001963260    0.000005592    0.000652454
      4        6           0.000441654    0.000036653    0.002414981
      5        6           0.002893110   -0.000166986    0.000253416
      6        6           0.002021677   -0.000182522   -0.002187186
      7        6          -0.001196985   -0.000024698   -0.002614019
      8        7           0.000899750    0.000066727    0.002790176
      9        8           0.003969020   -0.000303487   -0.003465546
     10        8          -0.005119641    0.000217917   -0.000009285
     11        6          -0.003094070    0.000074226   -0.001065678
     12        6          -0.001101040    0.000150856    0.002334761
     13        1          -0.001103412    0.000105126    0.001387836
     14        1          -0.001444864    0.000047167   -0.000482506
     15        1           0.000799689   -0.000081767   -0.001298724
     16        1           0.001495941   -0.000016561    0.000649534
     17        1          -0.001503063    0.000092393    0.001192866
     18        8           0.006916769   -0.000438685   -0.003788881
     19        7          -0.001335836   -0.000330888   -0.000898988
     20        6           0.000108833    0.001036353   -0.000256152
     21        6           0.000204738   -0.000340512   -0.000110850
     22        1          -0.000422766   -0.001268231    0.001356205
     23        1          -0.000872157   -0.000128839   -0.001643639
     24        1          -0.000604739    0.001788140    0.000698314
     25        1           0.000850155    0.000030590    0.001560057
     26        1           0.000205743   -0.001837266   -0.000451743
     27        6           0.000662275   -0.001213767   -0.000763876
     28        6          -0.000115665   -0.000254091    0.000124982
     29        1          -0.000043206    0.001853894    0.000716726
     30        1          -0.001293447   -0.000397596   -0.001290572
     31        1           0.001699190   -0.000387600   -0.001024452
     32        1           0.001108824    0.000610735    0.001319616
     33        1          -0.001682103    0.000546825    0.000818761
     34        1           0.001620432    0.000761588    0.000737434
     35        1           0.000531331   -0.001564351    0.001010873
 -------------------------------------------------------------------
 Cartesian Forces:  Max     0.006916769 RMS     0.001566379

 GradGradGradGradGradGradGradGradGradGradGradGradGradGradGradGradGradGrad
 Berny optimization.
 FormGI is forming the generalized inverse of G from B-inverse, IUseBI=4.
 Internal  Forces:  Max     0.007887400 RMS     0.001400993
 Search for a local minimum.
 Step number   1 out of a maximum of  183
 All quantities printed in internal units (Hartrees-Bohrs-Radians)
 Mixed Optimization -- RFO/linear search
 Second derivative matrix not updated -- first step.
 ITU=  0
     Eigenvalues ---    0.00230   0.00366   0.00374   0.00646   0.00656
     Eigenvalues ---    0.00749   0.00785   0.00785   0.00970   0.01679
     Eigenvalues ---    0.01756   0.01848   0.01854   0.01925   0.01946
     Eigenvalues ---    0.02009   0.02039   0.02084   0.02093   0.02121
     Eigenvalues ---    0.02140   0.02393   0.03954   0.03981   0.04542
     Eigenvalues ---    0.05346   0.05362   0.05409   0.05445   0.05663
     Eigenvalues ---    0.05667   0.06272   0.09501   0.09608   0.10231
     Eigenvalues ---    0.12947   0.13002   0.13433   0.15982   0.16000
     Eigenvalues ---    0.16000   0.16000   0.16000   0.16000   0.16000
     Eigenvalues ---    0.16000   0.16000   0.16000   0.16000   0.17490
     Eigenvalues ---    0.17748   0.21961   0.21974   0.21976   0.22000
     Eigenvalues ---    0.22007   0.22977   0.24000   0.24970   0.25000
     Eigenvalues ---    0.25000   0.25000   0.25000   0.25000   0.28245
     Eigenvalues ---    0.29405   0.29461   0.31965   0.32085   0.32730
[...]
 ,0.00001780,-0.00002373,0.00001372,0.00000313,-0.00000228,-0.00001733,
 0.00000130,0.00003067,-0.00003320,-0.00000304,-0.00004016,0.00000655,0
 .00000160,0.00001052,0.00002633,-0.00000271,0.00001168,0.00001671,0.00
 000708,-0.00006392,-0.00006493,0.00003153,0.00008915,0.00000436,0.0000
 0165,0.00001033,-0.00000103,0.00000155,0.00000788,0.00000043,-0.000002
 76,-0.00000046,0.00000428,-0.00000397,-0.00000570,-0.00002579,0.000233
 76,-0.00008826,0.00001439,-0.00002689,0.00003657,0.00071211,-0.0005124
 9,0.00213123,0.00004175,-0.00004196,0.00011945,-0.00003927,-0.00001527
 ,-0.00003892,0.00003226,-0.00000526,0.00001931,0.00004706,0.00006598,0
 .00004079,-0.00003964,0.00001025,-0.00005621,0.00002028,-0.00019764,0.
 00017453,0.00007138,0.00004732,0.00004614,-0.01892354,-0.00319355,-0.0
 1782453,-0.12278735,-0.01297345,-0.14416463,-0.00807472,-0.00031268,-0
 .00746798,0.13559826,0.01250399,0.15908195,-0.00009967,0.00046302,0.00
 004742,0.00023546,-0.00059937,-0.00005819,-0.00000183,0.00062291,0.000
 14784,-0.00020112,-0.00007930,-0.00056304,-0.00000074,0.00001237,0.000
 11844,-0.00005477,0.00000703,-0.00009391,0.00006827,0.00000392,0.00013
 934,-0.00010218,-0.00000553,-0.00021174,-0.00000796,0.00000733,0.00007
 790,0.00009855,-0.00000452,0.00005688,0.00002382,-0.00001276,-0.000059
 24,0.00001543,-0.00001608,0.00011810,0.00002080,0.00002765,-0.00000829
 ,-0.00000050,0.00000143,0.00001136,0.00000177,-0.00000506,-0.00000173,
 0.00001081,-0.00002621,-0.00002513,-0.00022158,-0.00002734,0.00032333,
 0.00002356,0.00012766,-0.00006761,0.00016805,0.00022880,0.00037443,-0.
 00002361,-0.00014919,-0.00007656,0.00004362,-0.00003082,-0.00001181,0.
 00000515,-0.00002512,0.00000686,-0.00000143,0.00001590,0.00000308,0.00
 006103,0.00000635,-0.00005483,-0.00000007,0.00005906,-0.00002289,-0.00
 001062,-0.00010391,0.00000574,-0.00148346,-0.00083985,0.00064708,-0.22
 944727,0.02654810,0.10879735,0.00001240,0.00001199,-0.00104177,-0.0189
 4510,0.00348581,0.01204267,0.24722644,-0.00050046,-0.00079823,0.000172
 95,-0.00021929,-0.00111014,-0.00059376,0.00017508,0.00002766,0.0003501
 2,-0.00012503,-0.00002241,-0.00047951,-0.00002223,-0.00000092,0.000143
 22,-0.00004077,-0.00000793,-0.00006179,0.00006714,0.00000820,0.0001595
 5,-0.00007540,-0.00000350,-0.00022728,-0.00002725,0.00000436,0.0000991
 8,0.00007899,-0.00000553,0.00005819,0.00000986,-0.00001237,-0.00006206
 ,0.00007451,-0.00000488,0.00010582,-0.00000086,0.00000661,-0.00000335,
 0.00000096,0.00000238,0.00000468,0.00000266,0.00000464,0.00000338,0.00
 000219,0.00000864,-0.00003992,-0.00006490,0.00002458,0.00011275,0.0002
 6168,0.00012286,-0.00005219,0.00001210,0.00150944,-0.00064765,-0.00008
 082,0.00013962,0.00019527,-0.00009010,0.00001715,0.00006434,0.00003724
 ,-0.00007842,-0.00003992,-0.00000595,-0.00003600,-0.00001302,0.0001288
 5,-0.00008623,-0.00009937,-0.00003648,0.00006747,-0.00008286,0.0000443
 6,-0.00005734,-0.00008024,-0.01968560,0.00227320,0.01092897,0.02685483
 ,-0.04636363,-0.01535639,0.02492292,-0.00308698,-0.01369672,-0.0029472
 2,-0.00097533,0.00162744,-0.02948900,0.05051213,0.00102135,0.00029133,
 0.00023827,0.00011909,-0.00018069,0.00080379,-0.00020317,0.00005281,-0
 .00010248,-0.00006705,0.00000203,-0.00004452,0.00000907,0.00002448,0.0
 0001387,-0.00002566,0.00000047,-0.00003256,0.00002000,-0.00000088,0.00
 000154,-0.00001064,0.00000223,-0.00002651,0.00000090,0.00000011,0.0000
 0848,0.00001254,-0.00000150,0.00000871,0.00000676,-0.00000925,0.000011
 92,-0.00002835,-0.00001407,-0.00001531,0.00001253,0.00002352,-0.000003
 70,-0.00000030,0.00000037,0.00000132,0.00000070,-0.00000243,-0.0000015
 3,0.00001056,-0.00002026,0.00000306,-0.00006209,0.00004928,-0.00000068
 ,0.00001026,-0.00002067,-0.00021339,-0.00087249,-0.00083674,0.00095838
 ,0.00006680,-0.00012360,-0.00010859,0.00006324,-0.00002973,-0.00015015
 ,-0.00001918,0.00010832,0.00004559,0.00001070,0.00004439,0.00003108,-0
 .00016677,0.00010484,0.00013190,0.00004125,-0.00005672,0.00003155,-0.0
 0004136,0.00009980,0.00006057,0.02111726,-0.00411188,-0.01331600,0.108
 37089,-0.01474226,-0.10768194,0.00952299,-0.00100111,-0.00641777,-0.01
 693296,0.00278359,0.01030881,-0.12066753,0.01452004,0.11779758,0.00280
 054,0.00139289,0.00268706,-0.00066781,-0.00009106,-0.00027905,0.000426
 83,-0.00014236,-0.00065116,0.00015990,-0.00004719,0.00048409,0.0000038
 1,0.00000947,-0.00014453,0.00006356,0.00000644,0.00004024,-0.00005472,
 -0.00000508,-0.00013591,0.00008120,0.00000731,0.00023799,0.00002521,-0
 .00000808,-0.00011208,-0.00008040,0.00000179,-0.00006781,-0.00000933,0
 .00001242,0.00005953,-0.00010746,-0.00000717,-0.00006644,0.00002431,-0
 .00000167,0.00000723,0.00000057,0.00000090,-0.00000081,-0.00000400,-0.
 00000327,-0.00000377,0.00000063,-0.00000096,0.00002611,-0.00004724,0.0
 0019791,0.00099880,0.00036383,0.00000656,-0.00017470,0.00039513,-0.006
 34204,-0.00205019,0.00023457,0.00084687,-0.00102941,-0.00021808,-0.000
 07475,0.00049816,0.00000176,-0.00014924,-0.00003882,0.00013195,0.00010
 104,-0.00000843,-0.00006116,-0.00006204,-0.00023700,-0.00028546,-0.000
 86780,0.00085635,0.00014090,-0.00007362,0.00032332,-0.17190102,-0.0149
 1662,-0.10420088,0.00183712,0.00037143,0.00235745,0.00008242,0.0006543
 7,-0.00050546,0.00139016,-0.00032659,0.00101997,0.00068093,0.00041041,
 -0.00015596,0.18325879,-0.00535430,0.00089881,0.00185895,0.00001750,0.
 00032044,-0.00024360,0.00032063,0.00014122,-0.00126842,0.00047000,-0.0
 0000819,0.00026733,-0.00005113,-0.00000820,-0.00018433,0.00006379,-0.0
 0000847,0.00001785,-0.00004021,-0.00000828,-0.00009034,0.00005241,-0.0
 0000361,0.00011410,0.00000865,-0.00000010,-0.00004727,-0.00005193,0.00
 000782,-0.00003000,-0.00000981,0.00001823,0.00002558,-0.00008428,0.000
 04605,-0.00003518,0.00000412,-0.00004278,0.00001309,-0.00000335,-0.000
 00812,-0.00000678,-0.00000512,-0.00000146,-0.00001177,0.00000604,-0.00
 001145,0.00002283,0.00002617,-0.00045180,0.00168818,0.00026967,-0.0000
 5644,-0.00027543,-0.02249597,-0.02403825,-0.02572332,-0.00015885,0.002
 75061,-0.00539549,0.00006465,-0.00016353,0.00040762,-0.00013068,0.0000
 7645,0.00013598,0.00021895,-0.00001181,-0.00003756,-0.00007065,0.00005
 606,0.00009986,0.00100507,0.00080638,0.00189447,0.00033204,0.00022171,
 0.00040625,-0.01576825,-0.04363734,-0.01428746,0.01591827,0.00190642,0
 .01413396,0.00011610,0.00054032,-0.00063008,-0.00069230,-0.00233834,0.
 00380331,-0.00054375,0.00053587,-0.00061222,0.02257476,0.06037217,-0.0
 0310087,0.00031208,0.00162132,-0.00054108,0.00047591,-0.00070028,0.000
 56925,-0.00018320,-0.00045208,0.00029579,-0.00000508,0.00026165,-0.000
 04050,0.00000339,-0.00011494,0.00006242,-0.00000748,0.00001560,-0.0000
 3308,0.00000156,-0.00009786,0.00006208,0.00000761,0.00018982,0.0000203
 1,-0.00000809,-0.00009323,-0.00005833,0.,-0.00005475,0.00001045,-0.000
 00109,0.00005859,-0.00008823,-0.00001531,-0.00000101,0.00003877,0.0000
 1709,-0.00000852,0.00000249,0.00000169,0.00000288,-0.00000548,-0.00000
 010,-0.00000622,-0.00000280,0.00000056,0.00000405,-0.00001255,0.000084
 03,0.00105817,0.00045144,-0.00004944,-0.00008563,-0.00724215,-0.013061
 57,-0.00992128,0.00144205,0.00095815,0.00108253,0.00019180,-0.00027693
 ,-0.00023702,-0.00005790,0.00006497,0.00010466,0.00006871,0.00003721,-
 0.00008487,-0.00009924,0.00011059,0.00006290,-0.00066055,-0.00105356,0
 .00074439,0.00000537,-0.00001718,0.00016888,-0.10346493,-0.01210371,-0
 .13463674,-0.01890406,-0.00010983,-0.01691121,-0.00000535,0.00010343,0
 .00074644,0.00066844,0.00339404,-0.00285186,0.00013058,-0.00102240,0.0
 0068210,0.11880490,0.02006100,0.15056632,0.00052854,-0.00000030,0.0004
 3833,-0.00023895,0.00033296,-0.00051941,0.00018546,-0.00000138,0.00035
 196,-0.00004497,-0.00003734,-0.00019390,-0.00000538,0.00000650,0.00006
 907,-0.00001870,0.00000469,-0.00003024,0.00003096,0.00000236,0.0000835
 1,-0.00005788,-0.00000621,-0.00012875,-0.00000682,0.00000458,0.0000541
 2,0.00005478,-0.00000145,0.00003688,0.00000663,0.00000373,-0.00003666,
 0.00003994,0.00000111,0.00006014,-0.00000663,-0.00000530,-0.00000096,-
 0.00000049,-0.00000012,0.00000339,0.00000042,-0.00000054,-0.00000014,-
 0.00000177,-0.00000572,-0.00002165,0.00001500,0.00001421,-0.00000920,0
 .00003506,-0.00001823,0.00016232,0.00107997,0.00146071,-0.00111900,-0.
 00035618,0.00013670,0.00137501,-0.00037880,-0.00150773,0.00028804,0.00
 008310,-0.00026404,-0.00010923,-0.00007705,-0.00008572,-0.00010863,-0.
 00018108,-0.00129086,0.00042917,-0.00033111,0.00002737,-0.00023171,-0.
 00007356,-0.00002946,-0.00025516,-0.23371064,0.03693263,0.10316723,-0.
 00150808,-0.00058094,0.00064622,0.00001108,-0.00054351,0.00014297,0.00
 090562,-0.00009239,0.00006632,0.00155241,-0.00028796,-0.00027545,-0.01
 965613,0.00288149,0.00998804,0.25127127,-0.00078193,-0.00598180,-0.001
 02106,0.00083558,-0.00065229,0.00129965,-0.00025755,0.00005045,-0.0004
 8367,0.00003780,-0.00001875,0.00022782,0.00000890,-0.00000230,-0.00009
 436,0.00001176,0.00000381,0.00002981,-0.00003202,-0.00000325,-0.000085
 13,0.00004551,0.00000324,0.00010963,0.00000871,-0.00000285,-0.00004406
 ,-0.00004772,0.00000149,-0.00002895,-0.00001734,0.00000219,0.00003489,
 -0.00003381,-0.00000199,-0.00008386,-0.00000203,0.00000333,0.00000138,
 -0.00000094,0.00000056,-0.00000715,-0.00000099,-0.00000178,-0.00000205
 ,0.00000657,-0.00000555,0.00004155,0.00005654,0.00003794,0.00020274,0.
 00016155,0.00027615,-0.00079338,0.02781193,-0.01116033,-0.01802566,0.0
 0191696,0.00060776,-0.00098366,-0.00036085,-0.00113393,-0.00041037,-0.
 00003261,0.00040183,0.00017152,-0.00000825,0.00014251,0.00002690,-0.00
 148926,-0.00053348,0.00112560,-0.00001142,-0.00024341,0.00033782,-0.00
 003229,0.00033590,0.00004263,0.02909272,-0.04881703,-0.01805898,-0.018
 82022,0.00216519,0.01162036,-0.00011749,0.00060114,-0.00055071,0.00047
 975,0.00065248,-0.00068162,0.00004888,-0.00240805,0.00368172,-0.002305
 79,0.00103685,0.00202023,-0.03721276,0.06527989,-0.00112459,-0.0018388
 3,0.00111999,0.00040580,0.00018703,0.00026818,-0.00009386,-0.00004673,
 -0.00025548,0.00008529,-0.00001905,0.00022252,-0.00000089,-0.00000652,
 -0.00006471,0.00001806,0.00000473,0.00003747,-0.00002712,-0.00000315,-
 0.00006214,0.00004789,-0.00000084,0.00008009,-0.00000114,-0.00000138,-
 0.00002481,-0.00004687,0.00000405,-0.00002172,-0.00002032,0.00000983,0
 .00002751,-0.00000137,0.00000824,-0.00007430,-0.00001043,-0.00002056,0
 .00000237,-0.00000067,-0.00000220,-0.00000925,-0.00000039,0.00000029,0
 .00000030,0.00000214,0.00000613,0.00002619,0.00013869,-0.00000519,0.00
 006540,-0.00009072,-0.00003651,-0.00017231,0.01019162,-0.00468547,-0.0
 0716310,0.00022420,0.00068845,-0.00001113,0.00030834,0.00123950,-0.000
 01295,-0.00015666,0.00016036,-0.00001681,-0.00003971,-0.00023692,-0.00
 012828,0.00060317,0.00077992,0.00015513,-0.00021628,0.00003670,0.00007
 695,0.00002730,0.00001835,-0.00009413,0.09965148,-0.02170173,-0.100266
 76,0.02143776,-0.00152256,-0.01365488,-0.00029199,-0.00019090,0.000991
 51,-0.00008889,-0.00096480,0.00059929,0.00001971,0.00354224,-0.0027487
 2,-0.01716238,0.00335693,0.00939621,-0.11450990,0.02125701,0.11224125,
 -0.16882378,-0.11064075,-0.04716751,-0.00489821,-0.00324684,-0.0046694
 3,0.00172033,-0.00023188,-0.00084500,-0.00018208,-0.00002862,0.0001175
 6,-0.00000879,0.00001449,0.00005428,0.00002311,-0.00004332,-0.00005783
 ,0.00002587,0.00000531,0.00005174,-0.00002581,0.00002422,-0.00004325,0
 .00000333,-0.00000059,0.00000498,0.00003252,-0.00000947,0.00001022,-0.
 00001720,-0.00001549,-0.00001780,-0.00000132,0.00001034,-0.00000102,0.
 00002578,-0.00001516,0.00000632,-0.00000228,0.00000031,-0.00000389,-0.
 00000547,-0.00001385,-0.00000824,-0.00001372,0.00006189,-0.00010635,-0
 .00036204,0.00031963,0.00153714,0.00121720,0.00099912,0.00171826,-0.02
 881795,-0.00934242,-0.00070230,-0.00236312,0.00199403,-0.00363198,-0.0
 0010137,-0.00081651,0.00099603,-0.00033355,0.00003480,0.00031474,0.000
 25962,0.00005106,-0.00004682,-0.00000446,0.00005727,0.00003356,0.00041
 703,-0.00017036,0.00067933,-0.00004083,-0.00016646,0.00010253,0.000725
 21,-0.00399499,-0.00004202,-0.00015353,0.00020588,0.00013393,0.0002588
 6,0.00005047,-0.00012501,0.00019092,-0.00020454,0.00001107,0.00008999,
 0.00056496,-0.00059860,0.00053323,0.00126710,0.00133028,0.00068661,-0.
 00018947,0.00019005,0.19401665,-0.11149164,-0.13533552,-0.04413717,-0.
 00043066,-0.00007769,0.00307611,0.00002328,-0.00010645,-0.00013603,0.0
 0028147,0.00003594,0.00055050,-0.00001510,-0.00001587,-0.00014289,0.00
 004926,0.00001198,0.00006943,-0.00007543,-0.00000807,-0.00017064,0.000
 08195,0.00000609,0.00025151,0.00002987,-0.00000855,-0.00010870,-0.0000
 8039,0.00000404,-0.00006293,0.00002307,-0.00000751,0.00005842,-0.00006
 263,0.00002297,-0.00007780,0.00000916,-0.00000135,-0.00000519,0.000003
 03,-0.00000102,0.00000041,-0.00000441,-0.00000011,-0.00000276,-0.00001
 719,-0.00000615,-0.00001207,0.00033416,-0.00007970,0.00011717,0.001287
 68,0.00025311,-0.00061616,0.00764817,0.00552180,0.00122457,0.00001555,
 -0.00055463,0.00024982,0.00010080,0.00062293,0.00007290,0.00005405,-0.
 00000213,-0.00007967,0.00003138,-0.00004779,-0.00003606,-0.00012940,0.
 00000940,0.00006498,-0.00019672,-0.00009172,0.00025491,0.00016224,0.00
 032835,-0.00017828,0.00308824,0.00094666,0.00190261,0.00066300,-0.0003
 9475,-0.00023258,-0.00003450,-0.00004564,-0.00006302,0.00004137,0.0000
 6623,0.00003292,0.00023021,-0.00029016,0.00012972,-0.00117803,0.001008
 01,0.00018884,0.00003863,-0.00001000,0.00011154,0.11929076,0.14492206,
 -0.04695309,-0.04500716,-0.05978065,-0.02549936,-0.02172985,-0.0116597
 1,0.00125726,0.00026002,-0.00549510,-0.00112114,0.00132149,0.00059332,
 -0.00006467,-0.00002534,-0.00003633,0.00011782,-0.00008573,0.00006099,
 -0.00010261,0.00000413,-0.00018252,0.00011401,0.00004199,0.00032650,0.
 00003366,-0.00001250,-0.00014693,-0.00010413,-0.00000230,-0.00009278,-
 0.00016281,-0.00010422,0.00007736,0.00002438,0.00000281,-0.00051595,-0
 .00000081,0.00002580,0.00002660,-0.00000815,-0.00000420,-0.00004470,-0
 .00001170,-0.00000751,-0.00001355,-0.00000867,0.00003525,-0.00005555,0
 .00017098,-0.00059042,-0.00013583,0.00143330,0.00299109,0.00259897,0.0
 1253793,0.00827159,0.00167316,0.00151976,-0.00077507,0.00124084,0.0002
 2001,0.00026649,-0.00084464,0.00021646,0.00002522,-0.00014359,-0.00014
 063,-0.00000179,-0.00000627,0.00002030,-0.00004693,-0.00000466,-0.0003
 2460,-0.00010742,-0.00030063,0.00003040,-0.00014593,0.00000469,0.00208
 815,0.00202294,0.00284455,-0.00065089,-0.00041879,0.00014826,0.0002046
 8,-0.00008968,-0.00004592,0.00011882,0.00004266,-0.00016630,0.00007467
 ,0.00043680,-0.00028870,-0.00127520,0.00046824,-0.00048699,-0.00005081
 ,0.00006711,-0.00016312,0.04881980,0.04629222,0.06793120,-0.05330925,0
 .05197684,-0.01547787,-0.00166840,0.00417226,-0.00490953,0.00058000,-0
 .00077370,-0.00063222,-0.00020994,-0.00026766,-0.00017326,-0.00002764,
 0.00000122,0.00007471,-0.00000941,0.00003202,-0.00005204,0.00003154,-0
 .00000459,0.00004479,-0.00002277,-0.00001727,-0.00007321,-0.00000931,0
 .00000237,0.00003123,0.00002936,0.00000347,0.00001937,-0.00000655,0.00
 002807,-0.00001612,0.00002591,0.00002226,-0.00001762,0.00000430,0.0000
 1587,0.00000486,-0.00000327,-0.00000528,-0.00000468,-0.00000037,0.0000
 0830,-0.00000509,-0.00001519,-0.00005432,-0.00006294,-0.00017415,0.000
 33252,0.00043068,-0.00008217,-0.00014256,0.00144867,-0.01240529,0.0258
 0849,-0.00350701,0.00070801,0.00404117,0.00031056,0.00017994,-0.000417
 20,-0.00032886,0.00005308,0.00000276,0.00005281,0.00005557,0.00007714,
 -0.00001597,0.00026316,-0.00002767,-0.00007441,0.00005217,-0.00030174,
 0.00049639,-0.00087520,-0.00112748,0.00035446,-0.00471627,-0.00163019,
 -0.00035438,-0.00012690,-0.00033760,0.00034143,0.00021716,0.00002266,-
 0.00009698,0.00010013,-0.00004615,-0.00002988,0.00026341,0.00005055,-0
 .00028936,0.00045547,-0.00015684,0.00017394,0.00016737,0.00123158,0.00
 053270,0.00592924,-0.01977121,0.00747688,0.06454627,0.05654408,-0.2522
 7191,0.06954246,0.00023452,0.00067594,0.00106745,-0.00092623,-0.000092
 62,-0.00035587,0.00007629,-0.00029774,0.00034430,0.00003192,-0.0000260
 9,-0.00009212,0.00002007,0.00000652,0.00005147,-0.00003276,-0.00000254
 ,-0.00007495,0.00003330,-0.00000251,0.00006687,0.00000679,-0.00000035,
 -0.00002082,-0.00003429,0.00000464,-0.00001297,0.00000213,0.00002229,0
 .00004029,-0.00007389,0.00005370,-0.00006623,-0.00000937,-0.00001313,0
 .00000481,-0.00000166,-0.00000708,-0.00000242,0.00000138,-0.00000096,0
 .00000177,0.00001363,0.00000457,0.00003269,-0.00002680,-0.00005106,-0.
 00042536,-0.00020190,0.00085948,-0.00007335,0.00382245,-0.00897607,-0.
 00101619,-0.00345404,-0.00012393,0.00217721,0.00005561,0.00049232,-0.0
 0006371,0.00009826,0.00002378,0.00003873,-0.00006338,-0.00001178,-0.00
 000198,-0.00023632,0.00008288,0.00014072,0.00027893,0.00007115,-0.0005
 4473,-0.00031547,0.00118186,0.00003500,0.00256085,0.00061043,0.0006183
 8,-0.00014781,0.00011077,-0.00016812,0.00002425,-0.00003681,0.00001993
 ,0.00010607,-0.00003346,-0.00006526,0.00004939,0.00008324,-0.00015504,
 0.00000877,0.00005475,0.00007261,0.00012428,-0.00062590,-0.00012794,0.
 00417907,-0.01667479,0.00657901,-0.06274810,0.27491041,-0.01959212,0.0
 7836978,-0.06354006,-0.00701482,0.03111237,-0.01418180,0.00031541,-0.0
 0158950,-0.00205396,-0.00078330,-0.00146039,-0.00001315,-0.00009097,0.
 00005473,-0.00001212,0.00004540,0.00012430,0.00004355,-0.00010540,-0.0
 0001650,-0.00017094,0.00008932,-0.00003740,0.00028408,0.00002408,-0.00
 000801,-0.00012006,-0.00008447,0.00001188,-0.00007873,-0.00002719,0.00
 015881,-0.00002227,0.00009073,-0.00003298,-0.00022461,-0.00001025,-0.0
 0002980,0.00002051,-0.00000546,-0.00000371,-0.00002175,-0.00000432,0.0
 0001197,-0.00000929,-0.00000277,-0.00008095,-0.00000191,0.00013052,0.0
 0071396,-0.00040760,-0.00010534,-0.00386603,0.00114803,0.00564537,-0.0
 1422293,0.00195288,0.00226733,-0.00190707,0.00067597,-0.00012385,0.000
 05381,-0.00014619,0.00000543,0.00002798,-0.00003817,-0.00011791,0.0000
 2043,-0.00001084,-0.00007696,-0.00005396,0.00001536,-0.00035779,-0.000
 34776,-0.00028227,0.00064031,0.00004144,0.00028389,0.00281536,-0.00021
 087,-0.00067682,0.00019547,0.00016161,-0.00024246,-0.00006637,-0.00000
 365,0.00006436,0.00006300,-0.00003177,-0.00000555,-0.00017849,0.000033
 48,0.00001404,-0.00010123,0.00010370,-0.00002204,0.00023810,-0.0009436
 9,-0.00036575,0.00195521,-0.00858663,0.00308394,0.01432799,-0.07756665
 ,0.07506171\\-0.00001665,0.00000497,-0.00000005,0.00000226,0.00000443,
 0.00000611,-0.00001139,0.00000134,0.00002172,0.00000415,-0.00000058,-0
 .00000511,0.00000169,0.00000200,0.00000207,-0.00000728,0.00000028,-0.0
 0000717,0.00000522,0.00000033,0.00000859,-0.00000146,0.00000055,-0.000
 00404,-0.00000299,0.00000068,-0.00000128,0.00000013,-0.00000011,-0.000
 00263,-0.00000033,-0.00000009,-0.00000480,0.00000118,-0.00000055,0.000
 00272,-0.00000140,-0.00000055,0.00000011,-0.00000053,-0.00000022,0.000
 00209,0.00000153,0.00000097,0.00000118,-0.00000324,-0.00000019,-0.0000
 0379,0.00000328,0.00000076,-0.00000816,0.00000913,-0.00000108,0.000001
 11,0.00000330,-0.00000964,-0.00000929,-0.00000027,0.00000156,0.0000019
 4,0.00000569,0.00000059,-0.00000543,0.00000035,-0.00000109,0.00000262,
 -0.00000026,-0.00000093,-0.00000030,-0.00000074,0.00000384,-0.00000076
 ,-0.00000061,-0.00000012,-0.00000031,0.00000250,-0.00000042,-0.0000015
 1,0.00000331,-0.00000134,-0.00000090,-0.00000247,-0.00000279,0.0000032
 5,0.00000014,0.00000104,-0.00000022,-0.00000114,-0.00000070,-0.0000009
 5,0.00000133,0.00000057,-0.00000088,0.00000036,-0.00000094,0.00000017,
 -0.00000390,-0.00000342,0.00000359,0.00000796,0.00000076,0.00000021,0.
 00000113,0.00000010,0.00000009\\\@


 The chemist is a guest at the physicist's table and
 frequently dines well.
                   -- Richard Bersohn
 Job cpu time:       0 days  4 hours 24 minutes 54.0 seconds.
 Elapsed time:       0 days  0 hours 33 minutes  7.4 seconds.
 File lengths (MBytes):  RWF=   1034 Int=      0 D2E=      0 Chk=     29 Scr=      1
 Normal termination of Gaussian 16 at Thu Nov 11 12:07:04 2021.
