 Entering Gaussian System, Link 0=/usr/local/g16.b01/g16/g16
 Initial command:
 /usr/local/g16.b01/g16/l1.exe "/scratch/webmo-4695/30/Gau-16455.inp" -scrdir="/scratch/webmo-4695/30/"
 Entering Link 1 = /usr/local/g16.b01/g16/l1.exe PID=     16457.
  
 Copyright (c) 1988-2017, Gaussian, Inc.  All Rights Reserved.
  
 This is part of the Gaussian(R) 16 program.  It is based on
 the Gaussian(R) 09 system (copyright 2009, Gaussian, Inc.),
 the Gaussian(R) 03 system (copyright 2003, Gaussian, Inc.),
 the Gaussian(R) 98 system (copyright 1998, Gaussian, Inc.),
 the Gaussian(R) 94 system (copyright 1995, Gaussian, Inc.),
 the Gaussian 92(TM) system (copyright 1992, Gaussian, Inc.),
 the Gaussian 90(TM) system (copyright 1990, Gaussian, Inc.),
 the Gaussian 88(TM) system (copyright 1988, Gaussian, Inc.),
 the Gaussian 86(TM) system (copyright 1986, Carnegie Mellon
 University), and the Gaussian 82(TM) system (copyright 1983,
 Carnegie Mellon University). Gaussian is a federally registered
 trademark of Gaussian, Inc.
  
 This software contains proprietary and confidential information,
 including trade secrets, belonging to Gaussian, Inc.
  
 This software is provided under written license and may be
 used, copied, transmitted, or stored only in accord with that
 written license.
  
 The following legend is applicable only to US Government
 contracts under FAR:
  
                    RESTRICTED RIGHTS LEGEND
  
 Use, reproduction and disclosure by the US Government is
 subject to restrictions as set forth in subparagraphs (a)
 and (c) of the Commercial Computer Software - Restricted
 Rights clause in FAR 52.227-19.
  
 Gaussian, Inc.
 340 Quinnipiac St., Bldg. 40, Wallingford CT 06492
  
  
 ---------------------------------------------------------------
 Warning -- This program may not be used in any manner that
 competes with the business of Gaussian, Inc. or will provide
 assistance to any competitor of Gaussian, Inc.  The licensee
 of this program is prohibited from giving any competitor of
 Gaussian, Inc. access to this program.  By using this program,
 the user acknowledges that Gaussian, Inc. is engaged in the
 business of creating and licensing software in the field of
 computational chemistry and represents and warrants to the
 licensee that it is not a competitor of Gaussian, Inc. and that
 it will not use this program in any manner prohibited above.
 ---------------------------------------------------------------
  

 Cite this work as:
 Gaussian 16, Revision B.01,
 M. J. Frisch, G. W. Trucks, H. B. Schlegel, G. E. Scuseria, 
 M. A. Robb, J. R. Cheeseman, G. Scalmani, V. Barone, 
 G. A. Petersson, H. Nakatsuji, X. Li, M. Caricato, A. V. Marenich, 
 J. Bloino, B. G. Janesko, R. Gomperts, B. Mennucci, H. P. Hratchian, 
 J. V. Ortiz, A. F. Izmaylov, J. L. Sonnenberg, D. Williams-Young, 
 F. Ding, F. Lipparini, F. Egidi, J. Goings, B. Peng, A. Petrone, 
 T. Henderson, D. Ranasinghe, V. G. Zakrzewski, J. Gao, N. Rega, 
 G. Zheng, W. Liang, M. Hada, M. Ehara, K. Toyota, R. Fukuda, 
 J. Hasegawa, M. Ishida, T. Nakajima, Y. Honda, O. Kitao, H. Nakai, 
 T. Vreven, K. Throssell, J. A. Montgomery, Jr., J. E. Peralta, 
 F. Ogliaro, M. J. Bearpark, J. J. Heyd, E. N. Brothers, K. N. Kudin, 
 V. N. Staroverov, T. A. Keith, R. Kobayashi, J. Normand, 
 K. Raghavachari, A. P. Rendell, J. C. Burant, S. S. Iyengar, 
 J. Tomasi, M. Cossi, J. M. Millam, M. Klene, C. Adamo, R. Cammi, 
 J. W. Ochterski, R. L. Martin, K. Morokuma, O. Farkas, 
 J. B. Foresman, and D. J. Fox, Gaussian, Inc., Wallingford CT, 2016.
 
 ******************************************
 Gaussian 16:  EM64L-G16RevB.01 20-Dec-2017
                20-Oct-2021 
 ******************************************
 %NProcShared=16
 Will use up to   16 processors via shared memory.
 %mem=16GB
 --------------------------------------------------
 #N PBEPBE/6-311+G(2d,p) OPT FREQ Geom=Connectivity
 --------------------------------------------------
 1/18=20,19=15,26=3,38=1,57=2/1,3;
 2/9=110,12=2,17=6,18=5,40=1/2;
 3/5=4,6=6,7=112,11=2,25=1,30=1,71=1,74=1009/1,2,3;
 4//1;
 5/5=2,38=5/2;
 6/7=2,8=2,9=2,10=2,28=1/1;
 7//1,2,3,16;
 1/18=20,19=15,26=3/3(2);
 2/9=110/2;
 99//99;
 2/9=110/2;
 3/5=4,6=6,7=112,11=2,25=1,30=1,71=1,74=1009/1,2,3;
 4/5=5,16=3,69=1/1;
 5/5=2,38=5/2;
 7//1,2,3,16;
 1/18=20,19=15,26=3/3(-5);
 2/9=110/2;
 6/7=2,8=2,9=2,10=2,19=2,28=1/1;
 99/9=1/99;
 -------------------
 phenacetin (PBEPBE)
 -------------------
 Symbolic Z-matrix:
 Charge =  0 Multiplicity = 1
 C
 O                    1    B1
 C                    2    B2       1    A1
 C                    3    B3       2    A2       1    D1       0
 C                    4    B4       3    A3       2    D2       0
 C                    5    B5       4    A4       3    D3       0
 C                    6    B6       5    A5       4    D4       0
 C                    7    B7       6    A6       5    D5       0
 H                    8    B8       7    A7       6    D6       0
 H                    7    B9       6    A8       5    D7       0
 N                    6    B10      5    A9       4    D8       0
 C                    11   B11      6    A10      5    D9       0
 C                    12   B12      11   A11      6    D10      0
 H                    13   B13      12   A12      11   D11      0
 H                    13   B14      12   A13      11   D12      0
 H                    13   B15      12   A14      11   D13      0
 O                    12   B16      11   A15      6    D14      0
 H                    11   B17      6    A16      5    D15      0
 H                    5    B18      6    A17      7    D16      0
 H                    4    B19      5    A18      6    D17      0
 C                    1    B20      2    A19      3    D18      0
 H                    21   B21      1    A20      2    D19      0
 H                    21   B22      1    A21      2    D20      0
 H                    21   B23      1    A22      2    D21      0
 H                    1    B24      2    A23      3    D22      0
 H                    1    B25      2    A24      3    D23      0
       Variables:
  B1                    1.41698                  
  B2                    1.35763                  
  B3                    1.39191                  
  B4                    1.39159                  
  B5                    1.39045                  
  B6                    1.39824                  
  B7                    1.37901                  
  B8                    1.08438                  
  B9                    1.08733                  
  B10                   1.40556                  
  B11                   1.36758                  
  B12                   1.51324                  
  B13                   1.09169                  
  B14                   1.09169                  
  B15                   1.09208                  
  B16                   1.21653                  
  B17                   1.00682                  
  B18                   1.08035                  
  B19                   1.08279                  
  B20                   1.50991                  
  B21                   1.09281                  
  B22                   1.09217                  
  B23                   1.09217                  
  B24                   1.09778                  
  B25                   1.09778                  
  A1                  118.04903                  
  A2                  125.30852                  
  A3                  120.71254                  
  A4                  120.25128                  
  A5                  118.77695                  
  A6                  121.00086                  
  A7                  120.91483                  
  A8                  119.86661                  
  A9                  123.80373                  
  A10                 128.97431                  
  A11                 114.4241                   
  A12                 108.48652                  
  A13                 108.4881                   
  A14                 114.33552                  
  A15                 124.33035                  
  A16                 115.12454                  
  A17                 119.49438                  
  A18                 118.312                    
  A19                 107.65829                  
  A20                 110.1697                   
  A21                 110.73203                  
  A22                 110.73313                  
  A23                 109.62971                  
  A24                 109.62925                  
  D1                   -0.00817                  
  D2                  179.9999                   
  D3                    0.00018                  
  D4                    0.00001                  
  D5                    0.00049                  
  D6                  179.99846                  
  D7                 -179.9989                   
  D8                 -179.9988                   
  D9                    0.00068                  
  D10                -179.99327                  
  D11                 121.82634                  
  D12                -121.78024                  
  D13                   0.02508                  
  D14                   0.01086                  
  D15                -179.97264                  
  D16                 179.99998                  
  D17                -179.99963                  
  D18                -179.9928                   
  D19                -179.99223                  
  D20                 -60.08998                  
  D21                  60.10647                  
  D22                  59.16129                  
  D23                 -59.14652                  
 

 GradGradGradGradGradGradGradGradGradGradGradGradGradGradGradGradGradGrad
 Berny optimization.
 Initialization pass.
                           ----------------------------
                           !    Initial Parameters    !
                           ! (Angstroms and Degrees)  !
 --------------------------                            --------------------------
 ! Name  Definition              Value          Derivative Info.                !
 --------------------------------------------------------------------------------
 ! R1    R(1,2)                  1.417          estimate D2E/DX2                !
 ! R2    R(1,21)                 1.5099         estimate D2E/DX2                !
 ! R3    R(1,25)                 1.0978         estimate D2E/DX2                !
 ! R4    R(1,26)                 1.0978         estimate D2E/DX2                !
 ! R5    R(2,3)                  1.3576         estimate D2E/DX2                !
 ! R6    R(3,4)                  1.3919         estimate D2E/DX2                !
 ! R7    R(3,8)                  1.3949         estimate D2E/DX2                !
 ! R8    R(4,5)                  1.3916         estimate D2E/DX2                !
 ! R9    R(4,20)                 1.0828         estimate D2E/DX2                !
 ! R10   R(5,6)                  1.3905         estimate D2E/DX2                !
 ! R11   R(5,19)                 1.0804         estimate D2E/DX2                !
 ! R12   R(6,7)                  1.3982         estimate D2E/DX2                !
 ! R13   R(6,11)                 1.4056         estimate D2E/DX2                !
 ! R14   R(7,8)                  1.379          estimate D2E/DX2                !
 ! R15   R(7,10)                 1.0873         estimate D2E/DX2                !
 ! R16   R(8,9)                  1.0844         estimate D2E/DX2                !
 ! R17   R(11,12)                1.3676         estimate D2E/DX2                !
 ! R18   R(11,18)                1.0068         estimate D2E/DX2                !
 ! R19   R(12,13)                1.5132         estimate D2E/DX2                !
 ! R20   R(12,17)                1.2165         estimate D2E/DX2                !
 ! R21   R(13,14)                1.0917         estimate D2E/DX2                !
 ! R22   R(13,15)                1.0917         estimate D2E/DX2                !
 ! R23   R(13,16)                1.0921         estimate D2E/DX2                !
 ! R24   R(21,22)                1.0928         estimate D2E/DX2                !
 ! R25   R(21,23)                1.0922         estimate D2E/DX2                !
 ! R26   R(21,24)                1.0922         estimate D2E/DX2                !
 ! A1    A(2,1,21)             107.6583         estimate D2E/DX2                !
 ! A2    A(2,1,25)             109.6297         estimate D2E/DX2                !
 ! A3    A(2,1,26)             109.6292         estimate D2E/DX2                !
 ! A4    A(21,1,25)            110.9943         estimate D2E/DX2                !
 ! A5    A(21,1,26)            110.9948         estimate D2E/DX2                !
 ! A6    A(25,1,26)            107.9291         estimate D2E/DX2                !
 ! A7    A(1,2,3)              118.049          estimate D2E/DX2                !
 ! A8    A(2,3,4)              125.3085         estimate D2E/DX2                !
 ! A9    A(2,3,8)              115.7341         estimate D2E/DX2                !
 ! A10   A(4,3,8)              118.9573         estimate D2E/DX2                !
 ! A11   A(3,4,5)              120.7125         estimate D2E/DX2                !
 ! A12   A(3,4,20)             120.9755         estimate D2E/DX2                !
 ! A13   A(5,4,20)             118.312          estimate D2E/DX2                !
 ! A14   A(4,5,6)              120.2513         estimate D2E/DX2                !
 ! A15   A(4,5,19)             120.2543         estimate D2E/DX2                !
 ! A16   A(6,5,19)             119.4944         estimate D2E/DX2                !
 ! A17   A(5,6,7)              118.7769         estimate D2E/DX2                !
 ! A18   A(5,6,11)             123.8037         estimate D2E/DX2                !
 ! A19   A(7,6,11)             117.4193         estimate D2E/DX2                !
 ! A20   A(6,7,8)              121.0009         estimate D2E/DX2                !
 ! A21   A(6,7,10)             119.8666         estimate D2E/DX2                !
 ! A22   A(8,7,10)             119.1325         estimate D2E/DX2                !
 ! A23   A(3,8,7)              120.301          estimate D2E/DX2                !
 ! A24   A(3,8,9)              118.7841         estimate D2E/DX2                !
 ! A25   A(7,8,9)              120.9148         estimate D2E/DX2                !
 ! A26   A(6,11,12)            128.9743         estimate D2E/DX2                !
 ! A27   A(6,11,18)            115.1245         estimate D2E/DX2                !
 ! A28   A(12,11,18)           115.9011         estimate D2E/DX2                !
 ! A29   A(11,12,13)           114.4241         estimate D2E/DX2                !
 ! A30   A(11,12,17)           124.3303         estimate D2E/DX2                !
 ! A31   A(13,12,17)           121.2456         estimate D2E/DX2                !
 ! A32   A(12,13,14)           108.4865         estimate D2E/DX2                !
 ! A33   A(12,13,15)           108.4881         estimate D2E/DX2                !
 ! A34   A(12,13,16)           114.3355         estimate D2E/DX2                !
 ! A35   A(14,13,15)           107.4147         estimate D2E/DX2                !
 ! A36   A(14,13,16)           108.9482         estimate D2E/DX2                !
 ! A37   A(15,13,16)           108.9504         estimate D2E/DX2                !
 ! A38   A(1,21,22)            110.1697         estimate D2E/DX2                !
 ! A39   A(1,21,23)            110.732          estimate D2E/DX2                !
 ! A40   A(1,21,24)            110.7331         estimate D2E/DX2                !
 ! A41   A(22,21,23)           108.3964         estimate D2E/DX2                !
 ! A42   A(22,21,24)           108.3951         estimate D2E/DX2                !
 ! A43   A(23,21,24)           108.3375         estimate D2E/DX2                !
 ! D1    D(21,1,2,3)          -179.9928         estimate D2E/DX2                !
 ! D2    D(25,1,2,3)            59.1613         estimate D2E/DX2                !
 ! D3    D(26,1,2,3)           -59.1465         estimate D2E/DX2                !
 ! D4    D(2,1,21,22)         -179.9922         estimate D2E/DX2                !
 ! D5    D(2,1,21,23)          -60.09           estimate D2E/DX2                !
 ! D6    D(2,1,21,24)           60.1065         estimate D2E/DX2                !
 ! D7    D(25,1,21,22)         -60.0067         estimate D2E/DX2                !
 ! D8    D(25,1,21,23)          59.8955         estimate D2E/DX2                !
 ! D9    D(25,1,21,24)        -179.908          estimate D2E/DX2                !
 ! D10   D(26,1,21,22)          60.0225         estimate D2E/DX2                !
 ! D11   D(26,1,21,23)         179.9247         estimate D2E/DX2                !
 ! D12   D(26,1,21,24)         -59.8788         estimate D2E/DX2                !
 ! D13   D(1,2,3,4)             -0.0082         estimate D2E/DX2                !
 ! D14   D(1,2,3,8)            179.9926         estimate D2E/DX2                !
 ! D15   D(2,3,4,5)            179.9999         estimate D2E/DX2                !
 ! D16   D(2,3,4,20)            -0.0003         estimate D2E/DX2                !
 ! D17   D(8,3,4,5)             -0.0008         estimate D2E/DX2                !
 ! D18   D(8,3,4,20)           179.999          estimate D2E/DX2                !
 ! D19   D(2,3,8,7)           -179.9993         estimate D2E/DX2                !
 ! D20   D(2,3,8,9)              0.001          estimate D2E/DX2                !
 ! D21   D(4,3,8,7)              0.0013         estimate D2E/DX2                !
 ! D22   D(4,3,8,9)           -179.9983         estimate D2E/DX2                !
 ! D23   D(3,4,5,6)              0.0002         estimate D2E/DX2                !
 ! D24   D(3,4,5,19)          -179.9998         estimate D2E/DX2                !
 ! D25   D(20,4,5,6)          -179.9996         estimate D2E/DX2                !
 ! D26   D(20,4,5,19)            0.0004         estimate D2E/DX2                !
 ! D27   D(4,5,6,7)              0.0            estimate D2E/DX2                !
 ! D28   D(4,5,6,11)          -179.9988         estimate D2E/DX2                !
 ! D29   D(19,5,6,7)           180.0            estimate D2E/DX2                !
 ! D30   D(19,5,6,11)            0.0012         estimate D2E/DX2                !
 ! D31   D(5,6,7,8)              0.0005         estimate D2E/DX2                !
 ! D32   D(5,6,7,10)          -179.9989         estimate D2E/DX2                !
 ! D33   D(11,6,7,8)           179.9994         estimate D2E/DX2                !
 ! D34   D(11,6,7,10)            0.0            estimate D2E/DX2                !
 ! D35   D(5,6,11,12)            0.0007         estimate D2E/DX2                !
 ! D36   D(5,6,11,18)         -179.9726         estimate D2E/DX2                !
 ! D37   D(7,6,11,12)         -179.9982         estimate D2E/DX2                !
 ! D38   D(7,6,11,18)            0.0285         estimate D2E/DX2                !
 ! D39   D(6,7,8,3)             -0.0012         estimate D2E/DX2                !
 ! D40   D(6,7,8,9)            179.9985         estimate D2E/DX2                !
 ! D41   D(10,7,8,3)           179.9982         estimate D2E/DX2                !
 ! D42   D(10,7,8,9)            -0.0021         estimate D2E/DX2                !
 ! D43   D(6,11,12,13)        -179.9933         estimate D2E/DX2                !
 ! D44   D(6,11,12,17)           0.0109         estimate D2E/DX2                !
 ! D45   D(18,11,12,13)         -0.0201         estimate D2E/DX2                !
 ! D46   D(18,11,12,17)        179.984          estimate D2E/DX2                !
 ! D47   D(11,12,13,14)        121.8263         estimate D2E/DX2                !
 ! D48   D(11,12,13,15)       -121.7802         estimate D2E/DX2                !
 ! D49   D(11,12,13,16)          0.0251         estimate D2E/DX2                !
 ! D50   D(17,12,13,14)        -58.1776         estimate D2E/DX2                !
 ! D51   D(17,12,13,15)         58.2158         estimate D2E/DX2                !
 ! D52   D(17,12,13,16)       -179.9789         estimate D2E/DX2                !
 --------------------------------------------------------------------------------
 Trust Radius=3.00D-01 FncErr=1.00D-07 GrdErr=1.00D-06 EigMax=2.50D+02 EigMin=1.00D-04
 Number of steps in this run=    131 maximum allowed number of steps=    156.
 GradGradGradGradGradGradGradGradGradGradGradGradGradGradGradGradGradGrad

                          Input orientation:                          
 ---------------------------------------------------------------------
 Center     Atomic      Atomic             Coordinates (Angstroms)
 Number     Number       Type             X           Y           Z
 ---------------------------------------------------------------------
      1          6           0        0.000000    0.000000    0.000000
      2          8           0        0.000000    0.000000    1.416977
      3          6           0        1.198172    0.000000    2.055372
      4          6           0        2.442292   -0.000162    1.431210
      5          6           0        3.614051   -0.000144    2.181879
      6          6           0        3.555977    0.000033    3.571120
      7          6           0        2.303374    0.000191    4.192460
      8          6           0        1.141828    0.000163    3.449166
      9          1           0        0.171119    0.000261    3.932494
     10          1           0        2.237308    0.000349    5.277783
     11          7           0        4.690242    0.000088    4.401199
     12          6           0        6.012276   -0.000002    4.051206
     13          6           0        6.969758   -0.000063    5.223007
     14          1           0        7.611524   -0.879800    5.145591
     15          1           0        7.611105    0.880016    5.146060
     16          1           0        6.483973   -0.000463    6.201093
     17          8           0        6.418406    0.000041    2.904464
     18          1           0        4.496874   -0.000215    5.389277
     19          1           0        4.575791   -0.000267    1.689718
     20          1           0        2.524101   -0.000308    0.351511
     21          6           0       -1.438763    0.000181   -0.458014
     22          1           0       -1.486648    0.000048   -1.549773
     23          1           0       -1.961782   -0.885151   -0.089959
     24          1           0       -1.961501    0.885785   -0.090211
     25          1           0        0.530043   -0.887791   -0.368789
     26          1           0        0.530273    0.887657   -0.368780
 ---------------------------------------------------------------------
                    Distance matrix (angstroms):
                    1          2          3          4          5
     1  C    0.000000
     2  O    1.416977   0.000000
     3  C    2.379111   1.357632   0.000000
     4  C    2.830751   2.442333   1.391910   0.000000
     5  C    4.221606   3.694109   2.419189   1.391590   0.000000
     6  C    5.039630   4.157560   2.802987   2.412366   1.390454
     7  C    4.783540   3.606777   2.405955   2.764743   2.400065
     8  C    3.633252   2.331001   1.394933   2.400698   2.778111
     9  H    3.936215   2.521330   2.139725   3.378557   3.862439
    10  H    5.732412   4.462216   3.385814   3.852031   3.388222
    11  N    6.431868   5.559132   4.206835   3.724797   2.466489
    12  C    7.249809   6.564040   5.211425   4.428224   3.040702
    13  C    8.709612   7.941246   6.583701   5.905563   4.528712
    14  H    9.229650   8.521262   7.173185   6.425834   5.053432
    15  H    9.229587   8.521115   7.173039   6.425843   5.053463
    16  H    8.971927   8.057896   6.717641   6.251958   4.938678
    17  O    7.044988   6.588517   5.288838   4.240279   2.895952
    18  H    7.018987   6.000087   4.690027   4.459552   3.326677
    19  H    4.877808   4.583912   3.397354   2.149103   1.080355
    20  H    2.548459   2.739763   2.158988   1.082794   2.130314
    21  C    1.509906   2.363394   3.642875   4.316452   5.700874
    22  H    2.147538   3.318393   4.495034   4.931818   6.319997
    23  H    2.154106   2.627344   3.920618   4.742682   6.085590
    24  H    2.154122   2.627493   3.920673   4.742680   6.085560
    25  H    1.097781   2.063511   2.666669   2.772107   4.099381
    26  H    1.097781   2.063505   2.666559   2.772003   4.099236
                    6          7          8          9         10
     6  C    0.000000
     7  C    1.398241   0.000000
     8  C    2.417227   1.379012   0.000000
     9  H    3.404094   2.148044   1.084381   0.000000
    10  H    2.156754   1.087332   2.131646   2.465551   0.000000
    11  N    1.405556   2.395978   3.673909   4.543364   2.604858
    12  C    2.502776   3.711592   4.907516   5.842363   3.969241
    13  C    3.792444   4.778825   6.091902   6.920037   4.732767
    14  H    4.438527   5.464366   6.746047   7.589844   5.447415
    15  H    4.438341   5.464015   6.745749   7.589473   5.446913
    16  H    3.935724   4.638105   6.009294   6.708105   4.345879
    17  O    2.939036   4.311894   5.304618   6.331307   4.807726
    18  H    2.047189   2.498762   3.875611   4.564468   2.262315
    19  H    2.140022   3.380473   3.858466   4.942791   4.282840
    20  H    3.380925   3.847286   3.392071   4.284852   4.934614
    21  C    6.417270   5.969129   4.682469   4.676353   6.812700
    22  H    7.186906   6.880226   5.647857   5.727429   7.777106
    23  H    6.680772   6.108560   4.789738   4.638248   6.872345
    24  H    6.680753   6.108576   4.789798   4.638359   6.872362
    25  H    5.046522   4.973752   3.967307   4.406642   5.965511
    26  H    5.046342   4.973570   3.967160   4.406520   5.965313
                   11         12         13         14         15
    11  N    0.000000
    12  C    1.367578   0.000000
    13  C    2.423131   1.513238   0.000000
    14  H    3.140415   2.128219   1.091693   0.000000
    15  H    3.140148   2.128236   1.091689   1.759815   0.000000
    16  H    2.541081   2.201026   1.092080   1.777269   1.777291
    17  O    2.286213   1.216535   2.383198   2.687061   2.687310
    18  H    1.006821   2.021603   2.478468   3.245627   3.245365
    19  H    2.713896   2.764076   4.267928   4.683194   4.683410
    20  H    4.592618   5.084792   6.595100   7.045465   7.045586
    21  C    7.821551   8.709251  10.147770  10.680939  10.680818
    22  H    8.577182   9.359746  10.834268  11.330435  11.330386
    23  H    8.074873   9.028751  10.429928  10.911425  11.053139
    24  H    8.074832   9.028681  10.429880  11.053222  10.911157
    25  H    6.391273   7.097845   8.574740   8.975289   9.147685
    26  H    6.391074   7.097645   8.574561   9.147475   8.975060
                   16         17         18         19         20
    16  H    0.000000
    17  O    3.297281   0.000000
    18  H    2.146535   3.141112   0.000000
    19  H    4.898333   2.206998   3.700401   0.000000
    20  H    7.063866   4.656521   5.410261   2.449537   0.000000
    21  C   10.349564   8.546425   8.332023   6.386518   4.044703
    22  H   11.117857   9.073595   9.162585   6.873680   4.438580
    23  H   10.568387   8.943025   8.515831   6.833018   4.593581
    24  H   10.568443   8.942901   8.515890   6.832966   4.593572
    25  H    8.910667   6.795238   7.048323   4.625281   2.298417
    26  H    8.910586   6.795006   7.048224   4.625153   2.298401
                   21         22         23         24         25
    21  C    0.000000
    22  H    1.092809   0.000000
    23  H    1.092165   1.772113   0.000000
    24  H    1.092167   1.772100   1.770936   0.000000
    25  H    2.161632   2.500005   2.507378   3.070989   0.000000
    26  H    2.161639   2.500114   3.070982   2.507298   1.775448
                   26
    26  H    0.000000
 Stoichiometry    C10H13NO2
 Framework group  C1[X(C10H13NO2)]
 Deg. of freedom    72
 Full point group                 C1      NOp   1
 Largest Abelian subgroup         C1      NOp   1
 Largest concise Abelian subgroup C1      NOp   1
                         Standard orientation:                         
 ---------------------------------------------------------------------
 Center     Atomic      Atomic             Coordinates (Angstroms)
 Number     Number       Type             X           Y           Z
 ---------------------------------------------------------------------
      1          6           0        3.758176   -0.774657   -0.000011
      2          8           0        3.025386    0.438126   -0.000084
      3          6           0        1.669731    0.364890   -0.000065
      4          6           0        0.927681   -0.812724   -0.000141
      5          6           0       -0.463430   -0.776206   -0.000111
      6          6           0       -1.132171    0.442871   -0.000008
      7          6           0       -0.381401    1.622457    0.000064
      8          6           0        0.997154    1.586969    0.000024
      9          1           0        1.578026    2.502649    0.000055
     10          1           0       -0.886131    2.585545    0.000163
     11          7           0       -2.532258    0.566746    0.000053
     12          6           0       -3.482781   -0.416502    0.000039
     13          6           0       -4.908282    0.091275   -0.000041
     14          1           0       -5.417539   -0.306933   -0.879746
     15          1           0       -5.417405   -0.306198    0.880069
     16          1           0       -4.998319    1.179637   -0.000513
     17          8           0       -3.237348   -1.608022    0.000158
     18          1           0       -2.877740    1.512437   -0.000309
     19          1           0       -1.032057   -1.694808   -0.000167
     20          1           0        1.416028   -1.779140   -0.000228
     21          6           0        5.226468   -0.422612    0.000131
     22          1           0        5.832056   -1.332279    0.000052
     23          1           0        5.483768    0.162825   -0.885242
     24          1           0        5.483676    0.162582    0.885694
     25          1           0        3.495225   -1.364472   -0.887760
     26          1           0        3.495042   -1.364466    0.887688
 ---------------------------------------------------------------------
 Rotational constants (GHZ):           2.8975839           0.3091755           0.2808352
 Standard basis: 6-311+G(2d,p) (5D, 7F)
 There are   455 symmetry adapted cartesian basis functions of A   symmetry.
 There are   429 symmetry adapted basis functions of A   symmetry.
   429 basis functions,   650 primitive gaussians,   455 cartesian basis functions
    48 alpha electrons       48 beta electrons
       nuclear repulsion energy       752.3119976234 Hartrees.
 NAtoms=   26 NActive=   26 NUniq=   26 SFac= 1.00D+00 NAtFMM=   60 NAOKFM=F Big=F
 Integral buffers will be    131072 words long.
 Raffenetti 2 integral format.
 Two-electron integral symmetry is turned on.
 One-electron integrals computed using PRISM.
 NBasis=   429 RedAO= T EigKep=  1.20D-06  NBF=   429
 NBsUse=   428 1.00D-06 EigRej=  1.27D-07 NBFU=   428
 ExpMin= 4.38D-02 ExpMax= 8.59D+03 ExpMxC= 1.30D+03 IAcc=3 IRadAn=         5 AccDes= 0.00D+00
 Harris functional with IExCor= 1009 and IRadAn=       5 diagonalized for initial guess.
 HarFok:  IExCor= 1009 AccDes= 0.00D+00 IRadAn=         5 IDoV= 1 UseB2=F ITyADJ=14
 ICtDFT=  3500011 ScaDFX=  1.000000  1.000000  1.000000  1.000000
 FoFCou: FMM=F IPFlag=           0 FMFlag=      100000 FMFlg1=           0
         NFxFlg=           0 DoJE=T BraDBF=F KetDBF=T FulRan=T
         wScrn=  0.000000 ICntrl=       500 IOpCl=  0 I1Cent=   200000004 NGrid=           0
         NMat0=    1 NMatS0=      1 NMatT0=    0 NMatD0=    1 NMtDS0=    0 NMtDT0=    0
 Petite list used in FoFCou.
 Requested convergence on RMS density matrix=1.00D-08 within 128 cycles.
 Requested convergence on MAX density matrix=1.00D-06.
 Requested convergence on             energy=1.00D-06.
 No special actions if energy rises.
 EnCoef did     1 forward-backward iterations
 SCF Done:  E(RPBE-PBE) =  -593.552401018     A.U. after   16 cycles
            NFock= 16  Conv=0.48D-08     -V/T= 2.0028

 **********************************************************************

            Population analysis using the SCF Density.

 **********************************************************************

 Orbital symmetries:
       Occupied  (A) (A) (A) (A) (A) (A) (A) (A) (A) (A) (A) (A)
                 (A) (A) (A) (A) (A) (A) (A) (A) (A) (A) (A) (A)
                 (A) (A) (A) (A) (A) (A) (A) (A) (A) (A) (A) (A)
                 (A) (A) (A) (A) (A) (A) (A) (A) (A) (A) (A) (A)
       Virtual   (A) (A) (A) (A) (A) (A) (A) (A) (A) (A) (A) (A)
                 (A) (A) (A) (A) (A) (A) (A) (A) (A) (A) (A) (A)
                 (A) (A) (A) (A) (A) (A) (A) (A) (A) (A) (A) (A)
                 (A) (A) (A) (A) (A) (A) (A) (A) (A) (A) (A) (A)
                 (A) (A) (A) (A) (A) (A) (A) (A) (A) (A) (A) (A)
                 (A) (A) (A) (A) (A) (A) (A) (A) (A) (A) (A) (A)
                 (A) (A) (A) (A) (A) (A) (A) (A) (A) (A) (A) (A)
                 (A) (A) (A) (A) (A) (A) (A) (A) (A) (A) (A) (A)
                 (A) (A) (A) (A) (A) (A) (A) (A) (A) (A) (A) (A)
                 (A) (A) (A) (A) (A) (A) (A) (A) (A) (A) (A) (A)
                 (A) (A) (A) (A) (A) (A) (A) (A) (A) (A) (A) (A)
                 (A) (A) (A) (A) (A) (A) (A) (A) (A) (A) (A) (A)
                 (A) (A) (A) (A) (A) (A) (A) (A) (A) (A) (A) (A)
                 (A) (A) (A) (A) (A) (A) (A) (A) (A) (A) (A) (A)
                 (A) (A) (A) (A) (A) (A) (A) (A) (A) (A) (A) (A)
                 (A) (A) (A) (A) (A) (A) (A) (A) (A) (A) (A) (A)
                 (A) (A) (A) (A) (A) (A) (A) (A) (A) (A) (A) (A)
                 (A) (A) (A) (A) (A) (A) (A) (A) (A) (A) (A) (A)
                 (A) (A) (A) (A) (A) (A) (A) (A) (A) (A) (A) (A)
                 (A) (A) (A) (A) (A) (A) (A) (A) (A) (A) (A) (A)
                 (A) (A) (A) (A) (A) (A) (A) (A) (A) (A) (A) (A)
                 (A) (A) (A) (A) (A) (A) (A) (A) (A) (A) (A) (A)
                 (A) (A) (A) (A) (A) (A) (A) (A) (A) (A) (A) (A)
                 (A) (A) (A) (A) (A) (A) (A) (A) (A) (A) (A) (A)
                 (A) (A) (A) (A) (A) (A) (A) (A) (A) (A) (A) (A)
                 (A) (A) (A) (A) (A) (A) (A) (A) (A) (A) (A) (A)
                 (A) (A) (A) (A) (A) (A) (A) (A) (A) (A) (A) (A)
                 (A) (A) (A) (A) (A) (A) (A) (A) (A) (A) (A) (A)
                 (A) (A) (A) (A) (A) (A) (A) (A) (A) (A) (A) (A)
                 (A) (A) (A) (A) (A) (A) (A) (A) (A) (A) (A) (A)
                 (A) (A) (A) (A) (A) (A) (A) (A) (A) (A) (A) (A)
                 (A) (A) (A) (A) (A) (A) (A) (A)
 The electronic state is 1-A.
 Alpha  occ. eigenvalues --  -18.78001 -18.71147 -14.02521  -9.97788  -9.93796
 Alpha  occ. eigenvalues --   -9.93758  -9.92433  -9.88974  -9.88648  -9.88248
 Alpha  occ. eigenvalues --   -9.88213  -9.87866  -9.87859  -0.98690  -0.95663
 Alpha  occ. eigenvalues --   -0.86826  -0.78022  -0.71660  -0.68848  -0.68312
 Alpha  occ. eigenvalues --   -0.64955  -0.59067  -0.57860  -0.54096  -0.51951
 Alpha  occ. eigenvalues --   -0.49626  -0.48521  -0.43946  -0.43694  -0.41773
 Alpha  occ. eigenvalues --   -0.41062  -0.39887  -0.38085  -0.37687  -0.36557
 Alpha  occ. eigenvalues --   -0.36117  -0.35648  -0.35427  -0.34793  -0.34113
 Alpha  occ. eigenvalues --   -0.31977  -0.31919  -0.29194  -0.28760  -0.25065
 Alpha  occ. eigenvalues --   -0.23285  -0.21022  -0.18226
 Alpha virt. eigenvalues --   -0.04435  -0.04114  -0.02401  -0.00859   0.00561
 Alpha virt. eigenvalues --    0.00562   0.01022   0.02044   0.02579   0.02768
 Alpha virt. eigenvalues --    0.03570   0.03773   0.04484   0.05112   0.05986
 Alpha virt. eigenvalues --    0.06075   0.06389   0.07107   0.07638   0.08215
 Alpha virt. eigenvalues --    0.08326   0.09068   0.09526   0.09680   0.10931
 Alpha virt. eigenvalues --    0.11544   0.12164   0.12179   0.12609   0.13139
 Alpha virt. eigenvalues --    0.13256   0.13340   0.14200   0.14351   0.14982
 Alpha virt. eigenvalues --    0.15725   0.16379   0.16611   0.17202   0.17896
 Alpha virt. eigenvalues --    0.18063   0.18445   0.18747   0.18781   0.19768
 Alpha virt. eigenvalues --    0.20034   0.20262   0.20483   0.20787   0.21466
 Alpha virt. eigenvalues --    0.21551   0.21855   0.23216   0.23884   0.23931
 Alpha virt. eigenvalues --    0.24577   0.25245   0.25672   0.26275   0.26527
 Alpha virt. eigenvalues --    0.27526   0.27920   0.27923   0.28414   0.29369
 Alpha virt. eigenvalues --    0.29918   0.30475   0.30821   0.31935   0.32839
 Alpha virt. eigenvalues --    0.34185   0.34568   0.35165   0.35665   0.37292
 Alpha virt. eigenvalues --    0.38181   0.38586   0.39476   0.41332   0.43268
 Alpha virt. eigenvalues --    0.44050   0.44801   0.45241   0.46057   0.46367
 Alpha virt. eigenvalues --    0.47667   0.48250   0.49263   0.49511   0.49771
 Alpha virt. eigenvalues --    0.50530   0.50607   0.50778   0.51083   0.52955
 Alpha virt. eigenvalues --    0.53055   0.53649   0.54066   0.55532   0.55741
 Alpha virt. eigenvalues --    0.57142   0.57743   0.58263   0.58548   0.59340
 Alpha virt. eigenvalues --    0.60737   0.61754   0.62342   0.62385   0.63091
 Alpha virt. eigenvalues --    0.63976   0.64750   0.65393   0.66208   0.66895
 Alpha virt. eigenvalues --    0.67807   0.68584   0.69052   0.69651   0.69739
 Alpha virt. eigenvalues --    0.70734   0.72540   0.73507   0.73979   0.74387
 Alpha virt. eigenvalues --    0.74856   0.76035   0.77805   0.78956   0.80087
 Alpha virt. eigenvalues --    0.80102   0.80439   0.81354   0.82289   0.82789
 Alpha virt. eigenvalues --    0.83513   0.85063   0.85973   0.86260   0.87851
 Alpha virt. eigenvalues --    0.89573   0.90002   0.90558   0.93532   0.94097
 Alpha virt. eigenvalues --    0.94722   0.97663   0.97811   0.99873   1.00455
 Alpha virt. eigenvalues --    1.01959   1.05060   1.05480   1.07067   1.08632
 Alpha virt. eigenvalues --    1.09475   1.10082   1.10685   1.11498   1.13525
 Alpha virt. eigenvalues --    1.13640   1.15140   1.16251   1.17370   1.18449
 Alpha virt. eigenvalues --    1.18918   1.19342   1.20314   1.21326   1.21963
 Alpha virt. eigenvalues --    1.25817   1.26121   1.26358   1.28587   1.30336
 Alpha virt. eigenvalues --    1.30402   1.31114   1.31866   1.34520   1.35417
 Alpha virt. eigenvalues --    1.37300   1.38544   1.38987   1.40039   1.42546
 Alpha virt. eigenvalues --    1.44322   1.44355   1.47881   1.49756   1.51285
 Alpha virt. eigenvalues --    1.51804   1.55345   1.58024   1.58147   1.59270
 Alpha virt. eigenvalues --    1.63818   1.64048   1.65015   1.67437   1.68128
 Alpha virt. eigenvalues --    1.70651   1.70992   1.71744   1.72182   1.72656
 Alpha virt. eigenvalues --    1.75381   1.77059   1.77904   1.80688   1.83578
 Alpha virt. eigenvalues --    1.85461   1.85748   1.88464   1.90815   1.90828
 Alpha virt. eigenvalues --    1.94742   1.95080   1.98627   2.06658   2.07173
 Alpha virt. eigenvalues --    2.07617   2.11831   2.13137   2.14084   2.15615
 Alpha virt. eigenvalues --    2.17532   2.18675   2.22386   2.23346   2.23767
 Alpha virt. eigenvalues --    2.26164   2.26871   2.27404   2.28824   2.30774
 Alpha virt. eigenvalues --    2.31475   2.35555   2.36969   2.40064   2.41978
 Alpha virt. eigenvalues --    2.42330   2.44804   2.48400   2.55997   2.56245
 Alpha virt. eigenvalues --    2.58853   2.58999   2.59059   2.60583   2.61089
 Alpha virt. eigenvalues --    2.63260   2.64665   2.66976   2.69588   2.71829
 Alpha virt. eigenvalues --    2.72931   2.73852   2.73944   2.74703   2.76899
 Alpha virt. eigenvalues --    2.77958   2.79360   2.79768   2.82161   2.84274
 Alpha virt. eigenvalues --    2.89263   2.91561   2.95800   2.98307   3.01727
 Alpha virt. eigenvalues --    3.03351   3.05451   3.05524   3.07854   3.10338
 Alpha virt. eigenvalues --    3.11319   3.13117   3.14991   3.16192   3.18061
 Alpha virt. eigenvalues --    3.19995   3.22526   3.22586   3.23327   3.24835
 Alpha virt. eigenvalues --    3.25630   3.26248   3.26438   3.27869   3.30344
 Alpha virt. eigenvalues --    3.30719   3.33384   3.34701   3.35838   3.35972
 Alpha virt. eigenvalues --    3.38283   3.38632   3.39760   3.40450   3.40618
 Alpha virt. eigenvalues --    3.41956   3.44140   3.46193   3.48723   3.49590
 Alpha virt. eigenvalues --    3.50516   3.52366   3.53183   3.54902   3.56669
 Alpha virt. eigenvalues --    3.57017   3.59035   3.59389   3.60555   3.64147
 Alpha virt. eigenvalues --    3.69081   3.69886   3.72097   3.74447   3.77764
 Alpha virt. eigenvalues --    3.78949   3.81634   3.84012   3.85212   3.87727
 Alpha virt. eigenvalues --    3.90589   3.94875   4.01110   4.05000   4.06179
 Alpha virt. eigenvalues --    4.09163   4.10397   4.11986   4.14235   4.14877
 Alpha virt. eigenvalues --    4.18607   4.26937   4.29735   4.41238   4.47086
 Alpha virt. eigenvalues --    4.49705   4.70436   4.74263   4.87949   4.93848
 Alpha virt. eigenvalues --    4.94879   4.97873   4.98092   5.03111   5.19415
 Alpha virt. eigenvalues --    5.24097   5.35460   5.39954   5.47248   5.64306
 Alpha virt. eigenvalues --    5.84798   6.03611   6.71313   6.80781   6.87211
 Alpha virt. eigenvalues --    6.92236   6.94874   6.97091   7.12811   7.18861
 Alpha virt. eigenvalues --    7.33416   7.41919  23.47729  23.68536  23.72918
 Alpha virt. eigenvalues --   23.76157  23.79926  23.81154  23.85887  23.89907
 Alpha virt. eigenvalues --   23.93903  23.96234  35.38972  49.67535  49.67843
          Condensed to atoms (all electrons):
               1          2          3          4          5          6
     1  C    5.111914   0.228825  -0.154541  -0.151398  -0.050098  -0.009370
     2  O    0.228825   8.458363   0.477461   0.294522   0.010763  -0.062564
     3  C   -0.154541   0.477461   7.850344   0.023669  -0.745381  -1.511663
     4  C   -0.151398   0.294522   0.023669   8.230307   1.508235  -1.023820
     5  C   -0.050098   0.010763  -0.745381   1.508235   8.110216  -0.491947
     6  C   -0.009370  -0.062564  -1.511663  -1.023820  -0.491947   9.844779
     7  C    0.146128   0.031006   0.562298  -0.637881  -3.438505  -0.537334
     8  C   -0.071539  -0.907169  -0.495569  -2.831639  -0.054418   0.427944
     9  H   -0.003730   0.003826  -0.048685   0.030890   0.005000   0.026347
    10  H    0.000159  -0.000760   0.007133   0.000693   0.026312  -0.043508
    11  N   -0.000694   0.001249  -0.003189   0.046399   0.036399  -0.134913
    12  C   -0.005317  -0.000814  -0.014005   0.048731   0.034220  -0.136003
    13  C   -0.000957  -0.000076   0.006935   0.032369   0.123414  -0.301255
    14  H   -0.000002   0.000000  -0.000109  -0.000650  -0.002875  -0.007010
    15  H   -0.000002   0.000000  -0.000109  -0.000643  -0.002830  -0.007027
    16  H    0.000007   0.000000  -0.000204   0.000657   0.001692   0.048207
    17  O   -0.000705  -0.000005   0.007369   0.083787   0.428151  -0.593659
    18  H   -0.000141  -0.000005  -0.000711   0.001889   0.042597  -0.117541
    19  H    0.001641  -0.000458   0.023566   0.010889   0.414489  -0.103175
    20  H   -0.001598  -0.010336  -0.152918   0.419693   0.017063   0.050827
    21  C    0.059285  -0.117895   0.037665  -0.144622   0.020978   0.009682
    22  H   -0.057627   0.011512   0.006724  -0.003385  -0.000265  -0.000007
    23  H   -0.033165   0.000274  -0.004171   0.001366  -0.000175  -0.000082
    24  H   -0.033165   0.000275  -0.004167   0.001359  -0.000177  -0.000082
    25  H    0.427680  -0.041505  -0.062598   0.047679   0.007634   0.000567
    26  H    0.427682  -0.041510  -0.062588   0.047640   0.007639   0.000585
               7          8          9         10         11         12
     1  C    0.146128  -0.071539  -0.003730   0.000159  -0.000694  -0.005317
     2  O    0.031006  -0.907169   0.003826  -0.000760   0.001249  -0.000814
     3  C    0.562298  -0.495569  -0.048685   0.007133  -0.003189  -0.014005
     4  C   -0.637881  -2.831639   0.030890   0.000693   0.046399   0.048731
     5  C   -3.438505  -0.054418   0.005000   0.026312   0.036399   0.034220
     6  C   -0.537334   0.427944   0.026347  -0.043508  -0.134913  -0.136003
     7  C   12.313479  -1.378649  -0.097091   0.363721  -0.160227  -0.246887
     8  C   -1.378649  10.885448   0.429355  -0.035940   0.106842   0.082343
     9  H   -0.097091   0.429355   0.567337  -0.009460  -0.000706   0.000051
    10  H    0.363721  -0.035940  -0.009460   0.597475  -0.006464   0.006577
    11  N   -0.160227   0.106842  -0.000706  -0.006464   6.696365   0.403114
    12  C   -0.246887   0.082343   0.000051   0.006577   0.403114   5.234143
    13  C   -0.040535   0.016025   0.000105  -0.000509  -0.057766  -0.379604
    14  H    0.003241   0.000337   0.000000   0.000000  -0.001906  -0.034115
    15  H    0.003200   0.000335   0.000000   0.000000  -0.001907  -0.034206
    16  H   -0.019099  -0.002881  -0.000000   0.000000   0.004593  -0.081168
    17  O   -0.112141   0.008388  -0.000007   0.000080   0.034618   0.477255
    18  H   -0.017068   0.023936  -0.000125   0.014093   0.348015  -0.052620
    19  H    0.031596  -0.030411   0.000104  -0.000476  -0.004000  -0.002142
    20  H   -0.020812   0.025009  -0.000449   0.000117  -0.000916   0.002493
    21  C    0.006429   0.079381  -0.001947  -0.000020  -0.000142  -0.000685
    22  H    0.000257   0.001050   0.000002   0.000000   0.000000   0.000001
    23  H   -0.000302  -0.001688   0.000009   0.000000   0.000000  -0.000001
    24  H   -0.000301  -0.001688   0.000009   0.000000   0.000000  -0.000001
    25  H   -0.000368  -0.013694   0.000127  -0.000001   0.000014  -0.000006
    26  H   -0.000355  -0.013685   0.000127  -0.000001   0.000014  -0.000006
              13         14         15         16         17         18
     1  C   -0.000957  -0.000002  -0.000002   0.000007  -0.000705  -0.000141
     2  O   -0.000076   0.000000   0.000000   0.000000  -0.000005  -0.000005
     3  C    0.006935  -0.000109  -0.000109  -0.000204   0.007369  -0.000711
     4  C    0.032369  -0.000650  -0.000643   0.000657   0.083787   0.001889
     5  C    0.123414  -0.002875  -0.002830   0.001692   0.428151   0.042597
     6  C   -0.301255  -0.007010  -0.007027   0.048207  -0.593659  -0.117541
     7  C   -0.040535   0.003241   0.003200  -0.019099  -0.112141  -0.017068
     8  C    0.016025   0.000337   0.000335  -0.002881   0.008388   0.023936
     9  H    0.000105   0.000000   0.000000  -0.000000  -0.000007  -0.000125
    10  H   -0.000509   0.000000   0.000000   0.000000   0.000080   0.014093
    11  N   -0.057766  -0.001906  -0.001907   0.004593   0.034618   0.348015
    12  C   -0.379604  -0.034115  -0.034206  -0.081168   0.477255  -0.052620
    13  C    6.095084   0.412283   0.412364   0.395878  -0.011021   0.053215
    14  H    0.412283   0.517189  -0.025793  -0.028318   0.000399  -0.000678
    15  H    0.412364  -0.025793   0.517201  -0.028312   0.000397  -0.000671
    16  H    0.395878  -0.028318  -0.028312   0.570050   0.006816   0.004709
    17  O   -0.011021   0.000399   0.000397   0.006816   8.112798   0.007321
    18  H    0.053215  -0.000678  -0.000671   0.004709   0.007321   0.475686
    19  H    0.001656   0.000006   0.000006   0.000019  -0.001671  -0.000302
    20  H    0.000350   0.000000   0.000000  -0.000000   0.000029   0.000044
    21  C   -0.000088  -0.000000  -0.000000   0.000000  -0.000030  -0.000010
    22  H    0.000000  -0.000000  -0.000000   0.000000  -0.000000   0.000000
    23  H   -0.000000   0.000000  -0.000000  -0.000000   0.000000   0.000000
    24  H   -0.000000  -0.000000   0.000000  -0.000000   0.000000   0.000000
    25  H    0.000001  -0.000000   0.000000  -0.000000  -0.000000  -0.000000
    26  H    0.000001   0.000000  -0.000000  -0.000000  -0.000000  -0.000000
              19         20         21         22         23         24
     1  C    0.001641  -0.001598   0.059285  -0.057627  -0.033165  -0.033165
     2  O   -0.000458  -0.010336  -0.117895   0.011512   0.000274   0.000275
     3  C    0.023566  -0.152918   0.037665   0.006724  -0.004171  -0.004167
     4  C    0.010889   0.419693  -0.144622  -0.003385   0.001366   0.001359
     5  C    0.414489   0.017063   0.020978  -0.000265  -0.000175  -0.000177
     6  C   -0.103175   0.050827   0.009682  -0.000007  -0.000082  -0.000082
     7  C    0.031596  -0.020812   0.006429   0.000257  -0.000302  -0.000301
     8  C   -0.030411   0.025009   0.079381   0.001050  -0.001688  -0.001688
     9  H    0.000104  -0.000449  -0.001947   0.000002   0.000009   0.000009
    10  H   -0.000476   0.000117  -0.000020   0.000000   0.000000   0.000000
    11  N   -0.004000  -0.000916  -0.000142   0.000000   0.000000   0.000000
    12  C   -0.002142   0.002493  -0.000685   0.000001  -0.000001  -0.000001
    13  C    0.001656   0.000350  -0.000088   0.000000  -0.000000  -0.000000
    14  H    0.000006   0.000000  -0.000000  -0.000000   0.000000  -0.000000
    15  H    0.000006   0.000000  -0.000000  -0.000000  -0.000000   0.000000
    16  H    0.000019  -0.000000   0.000000   0.000000  -0.000000  -0.000000
    17  O   -0.001671   0.000029  -0.000030  -0.000000   0.000000   0.000000
    18  H   -0.000302   0.000044  -0.000010   0.000000   0.000000   0.000000
    19  H    0.510663  -0.007136   0.000035   0.000000   0.000000   0.000000
    20  H   -0.007136   0.575611   0.003712   0.000061  -0.000004  -0.000004
    21  C    0.000035   0.003712   5.617117   0.416842   0.412726   0.412727
    22  H    0.000000   0.000061   0.416842   0.538580  -0.026870  -0.026873
    23  H    0.000000  -0.000004   0.412726  -0.026870   0.537347  -0.031647
    24  H    0.000000  -0.000004   0.412727  -0.026873  -0.031647   0.537355
    25  H    0.000058  -0.001195  -0.029460  -0.003213  -0.009704   0.008183
    26  H    0.000058  -0.001195  -0.029467  -0.003210   0.008183  -0.009707
              25         26
     1  C    0.427680   0.427682
     2  O   -0.041505  -0.041510
     3  C   -0.062598  -0.062588
     4  C    0.047679   0.047640
     5  C    0.007634   0.007639
     6  C    0.000567   0.000585
     7  C   -0.000368  -0.000355
     8  C   -0.013694  -0.013685
     9  H    0.000127   0.000127
    10  H   -0.000001  -0.000001
    11  N    0.000014   0.000014
    12  C   -0.000006  -0.000006
    13  C    0.000001   0.000001
    14  H   -0.000000   0.000000
    15  H    0.000000  -0.000000
    16  H   -0.000000  -0.000000
    17  O   -0.000000  -0.000000
    18  H   -0.000000  -0.000000
    19  H    0.000058   0.000058
    20  H   -0.001195  -0.001195
    21  C   -0.029460  -0.029467
    22  H   -0.003213  -0.003210
    23  H   -0.009704   0.008183
    24  H    0.008183  -0.009707
    25  H    0.592535  -0.065282
    26  H   -0.065282   0.592523
 Mulliken charges:
               1
     1  C    0.170728
     2  O   -0.334979
     3  C    0.257444
     4  C   -0.036736
     5  C   -0.008133
     6  C    0.672020
     7  C   -0.753801
     8  C   -0.247421
     9  H    0.098911
    10  H    0.080777
    11  N   -0.304791
    12  C    0.698650
    13  C   -0.757866
    14  H    0.167999
    15  H    0.167997
    16  H    0.127355
    17  O   -0.448170
    18  H    0.218366
    19  H    0.154984
    20  H    0.101554
    21  C   -0.752213
    22  H    0.146421
    23  H    0.147904
    24  H    0.147902
    25  H    0.142548
    26  H    0.142551
 Sum of Mulliken charges =  -0.00000
 Mulliken charges with hydrogens summed into heavy atoms:
               1
     1  C    0.455827
     2  O   -0.334979
     3  C    0.257444
     4  C    0.064817
     5  C    0.146851
     6  C    0.672020
     7  C   -0.673024
     8  C   -0.148510
    11  N   -0.086425
    12  C    0.698650
    13  C   -0.294515
    17  O   -0.448170
    21  C   -0.309987
 Electronic spatial extent (au):  <R**2>=           3830.2890
 Charge=             -0.0000 electrons
 Dipole moment (field-independent basis, Debye):
    X=              0.6266    Y=              2.3032    Z=             -0.0006  Tot=              2.3869
 Quadrupole moment (field-independent basis, Debye-Ang):
   XX=            -64.8277   YY=            -76.8699   ZZ=            -80.5834
   XY=            -15.9384   XZ=              0.0024   YZ=              0.0003
 Traceless Quadrupole moment (field-independent basis, Debye-Ang):
   XX=              9.2659   YY=             -2.7762   ZZ=             -6.4897
   XY=            -15.9384   XZ=              0.0024   YZ=              0.0003
 Octapole moment (field-independent basis, Debye-Ang**2):
  XXX=             -7.6377  YYY=             15.7022  ZZZ=              0.0018  XYY=             13.3786
  XXY=             17.8997  XXZ=             -0.0051  XZZ=             -1.6780  YZZ=             -3.5487
  YYZ=             -0.0032  XYZ=              0.0005
 Hexadecapole moment (field-independent basis, Debye-Ang**3):
 XXXX=          -4108.9816 YYYY=           -531.3926 ZZZZ=           -108.9799 XXXY=           -152.4295
 XXXZ=              0.0171 YYYX=            -39.7007 YYYZ=              0.0022 ZZZX=             -0.0045
 ZZZY=             -0.0014 XXYY=           -868.7563 XXZZ=           -752.2949 YYZZ=           -118.1852
 XXYZ=              0.0019 YYXZ=              0.0099 ZZXY=             10.0512
 N-N= 7.523119976234D+02 E-N=-2.890106924063D+03  KE= 5.918708346776D+02
 Calling FoFJK, ICntrl=      2527 FMM=F ISym2X=0 I1Cent= 0 IOpClX= 0 NMat=1 NMatS=1 NMatT=0.
 ***** Axes restored to original set *****
 -------------------------------------------------------------------
 Center     Atomic                   Forces (Hartrees/Bohr)
 Number     Number              X              Y              Z
 -------------------------------------------------------------------
      1        6          -0.001587704    0.000000224   -0.004905143
      2        8          -0.008291755    0.000001408    0.005118644
      3        6           0.001053266   -0.000001346    0.000452512
      4        6           0.000559053    0.000000295   -0.003201695
      5        6           0.001897653   -0.000000361   -0.003536042
      6        6           0.002340226    0.000002936    0.002894658
      7        6          -0.001577873   -0.000000307    0.003113066
      8        6          -0.002532860   -0.000000500    0.002923379
      9        1          -0.004330083    0.000001490    0.002256591
     10        1          -0.000082194    0.000000375    0.004830398
     11        7          -0.003170306   -0.000006746   -0.002546753
     12        6           0.001695791    0.000002478    0.013086011
     13        6          -0.000321943   -0.000009188    0.000880031
     14        1           0.002984208   -0.003730870   -0.000149509
     15        1           0.002983063    0.003736589   -0.000146033
     16        1          -0.001772969    0.000001414    0.004626563
     17        8           0.006432809    0.000001165   -0.020018729
     18        1          -0.002053529    0.000002870    0.007743897
     19        1           0.004615346   -0.000000114   -0.002116692
     20        1           0.000280986   -0.000000549   -0.004954724
     21        6           0.000511463    0.000002197   -0.000384449
     22        1          -0.000131170   -0.000001390   -0.004479280
     23        1          -0.002268467   -0.003785448    0.001447365
     24        1          -0.002266265    0.003784820    0.001448321
     25        1           0.002516326   -0.004043653   -0.002190803
     26        1           0.002516928    0.004042214   -0.002191585
 -------------------------------------------------------------------
 Cartesian Forces:  Max     0.020018729 RMS     0.003880943

 GradGradGradGradGradGradGradGradGradGradGradGradGradGradGradGradGradGrad
 Berny optimization.
 FormGI is forming the generalized inverse of G from B-inverse, IUseBI=4.
 Internal  Forces:  Max     0.021017995 RMS     0.003860584
 Search for a local minimum.
 Step number   1 out of a maximum of  131
 All quantities printed in internal units (Hartrees-Bohrs-Radians)
 Mixed Optimization -- RFO/linear search
 Second derivative matrix not updated -- first step.
 ITU=  0
     Eigenvalues ---    0.00591   0.00635   0.01228   0.01467   0.01618
     Eigenvalues ---    0.01871   0.01998   0.02121   0.02157   0.02185
     Eigenvalues ---    0.02198   0.02198   0.02208   0.02231   0.02249
     Eigenvalues ---    0.02252   0.02287   0.05472   0.05755   0.05815
     Eigenvalues ---    0.05899   0.06829   0.07611   0.11253   0.13640
     Eigenvalues ---    0.16000   0.16000   0.16000   0.16000   0.16000
     Eigenvalues ---    0.16000   0.16000   0.16000   0.16000   0.16000
     Eigenvalues ---    0.16000   0.21958   0.22000   0.22000   0.22967
     Eigenvalues ---    0.24000   0.25000   0.25000   0.25000   0.25000
     Eigenvalues ---    0.25000   0.31027   0.31360   0.33929   0.33929
     Eigenvalues ---    0.34490   0.34563   0.34564   0.34573   0.34618
     Eigenvalues ---    0.34618   0.35123   0.35470   0.35659   0.35952
     Eigenvalues ---    0.42549   0.42880   0.42919   0.44712   0.46344
     Eigenvalues ---    0.46509   0.46770   0.47109   0.48682   0.51445
     Eigenvalues ---    0.53429   0.96935
 RFO step:  Lambda=-3.62755418D-03 EMin= 5.90828291D-03
 Linear search not attempted -- first point.
 Iteration  1 RMS(Cart)=  0.02787543 RMS(Int)=  0.00001916
 Iteration  2 RMS(Cart)=  0.00005300 RMS(Int)=  0.00000316
 Iteration  3 RMS(Cart)=  0.00000000 RMS(Int)=  0.00000316
 Variable       Old X    -DE/DX   Delta X   Delta X   Delta X     New X
                                 (Linear)    (Quad)   (Total)
    R1        2.67770   0.01125   0.00000   0.02600   0.02600   2.70370
    R2        2.85331   0.00456   0.00000   0.01436   0.01436   2.86767
    R3        2.07451   0.00522   0.00000   0.01523   0.01523   2.08973
    R4        2.07451   0.00522   0.00000   0.01522   0.01522   2.08973
    R5        2.56555   0.01083   0.00000   0.02013   0.02013   2.58568
    R6        2.63033   0.00865   0.00000   0.01820   0.01819   2.64852
    R7        2.63604   0.00956   0.00000   0.02039   0.02039   2.65643
    R8        2.62972   0.00810   0.00000   0.01703   0.01703   2.64675
    R9        2.04618   0.00496   0.00000   0.01377   0.01377   2.05996
   R10        2.62758   0.00989   0.00000   0.02080   0.02080   2.64838
   R11        2.04157   0.00507   0.00000   0.01397   0.01397   2.05554
   R12        2.64229   0.00942   0.00000   0.02041   0.02042   2.66271
   R13        2.65612   0.00752   0.00000   0.01669   0.01669   2.67280
   R14        2.60595   0.00834   0.00000   0.01685   0.01685   2.62280
   R15        2.05476   0.00483   0.00000   0.01360   0.01360   2.06836
   R16        2.04918   0.00488   0.00000   0.01362   0.01362   2.06281
   R17        2.58435   0.01204   0.00000   0.02325   0.02325   2.60759
   R18        1.90262   0.00799   0.00000   0.01706   0.01706   1.91967
   R19        2.85961   0.00649   0.00000   0.02066   0.02066   2.88027
   R20        2.29892   0.02102   0.00000   0.02160   0.02160   2.32052
   R21        2.06300   0.00477   0.00000   0.01364   0.01364   2.07664
   R22        2.06299   0.00478   0.00000   0.01365   0.01365   2.07664
   R23        2.06373   0.00493   0.00000   0.01412   0.01412   2.07785
   R24        2.06511   0.00448   0.00000   0.01286   0.01286   2.07796
   R25        2.06389   0.00464   0.00000   0.01329   0.01329   2.07719
   R26        2.06390   0.00464   0.00000   0.01329   0.01329   2.07719
    A1        1.87899   0.00113   0.00000   0.00627   0.00627   1.88526
    A2        1.91340  -0.00012   0.00000   0.00184   0.00184   1.91524
    A3        1.91339  -0.00012   0.00000   0.00184   0.00184   1.91524
    A4        1.93722  -0.00044   0.00000  -0.00306  -0.00307   1.93414
    A5        1.93722  -0.00044   0.00000  -0.00306  -0.00307   1.93415
    A6        1.88372  -0.00002   0.00000  -0.00372  -0.00373   1.87999
    A7        2.06034   0.00061   0.00000   0.00239   0.00239   2.06274
    A8        2.18705  -0.00106   0.00000  -0.00404  -0.00404   2.18301
    A9        2.01994   0.00137   0.00000   0.00552   0.00553   2.02547
   A10        2.07620  -0.00031   0.00000  -0.00149  -0.00149   2.07471
   A11        2.10683   0.00040   0.00000   0.00145   0.00145   2.10828
   A12        2.11142  -0.00030   0.00000  -0.00131  -0.00131   2.11011
   A13        2.06493  -0.00010   0.00000  -0.00013  -0.00013   2.06480
   A14        2.09878   0.00027   0.00000   0.00105   0.00105   2.09983
   A15        2.09883   0.00009   0.00000   0.00084   0.00084   2.09967
   A16        2.08557  -0.00036   0.00000  -0.00189  -0.00189   2.08368
   A17        2.07305  -0.00081   0.00000  -0.00313  -0.00313   2.06992
   A18        2.16078   0.00061   0.00000   0.00239   0.00239   2.16317
   A19        2.04935   0.00020   0.00000   0.00074   0.00074   2.05009
   A20        2.11186   0.00043   0.00000   0.00208   0.00208   2.11394
   A21        2.09207  -0.00043   0.00000  -0.00237  -0.00237   2.08970
   A22        2.07925   0.00000   0.00000   0.00029   0.00029   2.07955
   A23        2.09965   0.00002   0.00000   0.00004   0.00004   2.09969
   A24        2.07317   0.00008   0.00000   0.00054   0.00054   2.07372
   A25        2.11036  -0.00010   0.00000  -0.00059  -0.00059   2.10978
   A26        2.25103   0.00207   0.00000   0.00925   0.00925   2.26028
   A27        2.00930  -0.00154   0.00000  -0.00769  -0.00769   2.00161
   A28        2.02286  -0.00053   0.00000  -0.00156  -0.00156   2.02130
   A29        1.99708   0.00021   0.00000   0.00084   0.00084   1.99792
   A30        2.16997  -0.00082   0.00000  -0.00323  -0.00323   2.16675
   A31        2.11613   0.00061   0.00000   0.00239   0.00239   2.11852
   A32        1.89345   0.00021   0.00000   0.00113   0.00113   1.89457
   A33        1.89347   0.00021   0.00000   0.00111   0.00111   1.89458
   A34        1.99553   0.00059   0.00000   0.00392   0.00392   1.99945
   A35        1.87474  -0.00032   0.00000  -0.00270  -0.00270   1.87204
   A36        1.90150  -0.00036   0.00000  -0.00190  -0.00190   1.89960
   A37        1.90154  -0.00037   0.00000  -0.00194  -0.00195   1.89960
   A38        1.92282  -0.00017   0.00000  -0.00145  -0.00145   1.92138
   A39        1.93264   0.00014   0.00000   0.00104   0.00104   1.93367
   A40        1.93266   0.00013   0.00000   0.00103   0.00103   1.93369
   A41        1.89187  -0.00003   0.00000  -0.00061  -0.00061   1.89126
   A42        1.89185  -0.00003   0.00000  -0.00059  -0.00059   1.89126
   A43        1.89085  -0.00004   0.00000   0.00056   0.00055   1.89140
    D1       -3.14147  -0.00000   0.00000  -0.00002  -0.00002  -3.14149
    D2        1.03256  -0.00008   0.00000  -0.00118  -0.00119   1.03137
    D3       -1.03230   0.00008   0.00000   0.00114   0.00115  -1.03115
    D4       -3.14146   0.00000   0.00000  -0.00002  -0.00002  -3.14148
    D5       -1.04877  -0.00006   0.00000  -0.00106  -0.00106  -1.04983
    D6        1.04906   0.00006   0.00000   0.00099   0.00100   1.05005
    D7       -1.04731   0.00030   0.00000   0.00435   0.00434  -1.04297
    D8        1.04537   0.00024   0.00000   0.00331   0.00331   1.04868
    D9       -3.13999   0.00037   0.00000   0.00537   0.00536  -3.13462
   D10        1.04759  -0.00030   0.00000  -0.00440  -0.00440   1.04320
   D11        3.14028  -0.00037   0.00000  -0.00544  -0.00543   3.13485
   D12       -1.04508  -0.00024   0.00000  -0.00338  -0.00338  -1.04846
   D13       -0.00014   0.00000   0.00000   0.00003   0.00003  -0.00011
   D14        3.14146   0.00000   0.00000   0.00003   0.00003   3.14149
   D15        3.14159   0.00000   0.00000   0.00001   0.00001  -3.14159
   D16       -0.00001   0.00000   0.00000   0.00000   0.00000  -0.00000
   D17       -0.00001   0.00000   0.00000   0.00001   0.00001  -0.00000
   D18        3.14157   0.00000   0.00000   0.00001   0.00001   3.14158
   D19       -3.14158  -0.00000   0.00000  -0.00001  -0.00001  -3.14159
   D20        0.00002  -0.00000   0.00000  -0.00002  -0.00002   0.00000
   D21        0.00002  -0.00000   0.00000  -0.00001  -0.00001   0.00001
   D22       -3.14156  -0.00000   0.00000  -0.00002  -0.00002  -3.14158
   D23        0.00000  -0.00000   0.00000  -0.00000  -0.00000   0.00000
   D24       -3.14159   0.00000   0.00000   0.00000   0.00000  -3.14159
   D25       -3.14159   0.00000   0.00000   0.00000   0.00000  -3.14159
   D26        0.00001   0.00000   0.00000   0.00000   0.00000   0.00001
   D27        0.00000  -0.00000   0.00000  -0.00000  -0.00000  -0.00000
   D28       -3.14157  -0.00000   0.00000  -0.00001  -0.00001  -3.14159
   D29        3.14159  -0.00000   0.00000  -0.00001  -0.00001   3.14158
   D30        0.00002  -0.00000   0.00000  -0.00002  -0.00002   0.00000
   D31        0.00001   0.00000   0.00000   0.00000   0.00000   0.00001
   D32       -3.14157  -0.00000   0.00000  -0.00000  -0.00000  -3.14157
   D33        3.14158   0.00000   0.00000   0.00001   0.00001   3.14159
   D34       -0.00000   0.00000   0.00000   0.00001   0.00001   0.00001
   D35        0.00001   0.00000   0.00000   0.00002   0.00002   0.00003
   D36       -3.14112  -0.00000   0.00000  -0.00012  -0.00012  -3.14123
   D37       -3.14156   0.00000   0.00000   0.00001   0.00001  -3.14155
   D38        0.00050  -0.00000   0.00000  -0.00012  -0.00012   0.00037
   D39       -0.00002   0.00000   0.00000   0.00001   0.00001  -0.00001
   D40        3.14157   0.00000   0.00000   0.00002   0.00002   3.14158
   D41        3.14156   0.00000   0.00000   0.00001   0.00001   3.14157
   D42       -0.00004   0.00000   0.00000   0.00002   0.00002  -0.00002
   D43       -3.14148  -0.00000   0.00000  -0.00004  -0.00004  -3.14151
   D44        0.00019  -0.00000   0.00000  -0.00006  -0.00006   0.00013
   D45       -0.00035   0.00000   0.00000   0.00010   0.00010  -0.00025
   D46        3.14131   0.00000   0.00000   0.00008   0.00008   3.14139
   D47        2.12627   0.00008   0.00000   0.00098   0.00098   2.12725
   D48       -2.12547  -0.00008   0.00000  -0.00101  -0.00101  -2.12648
   D49        0.00044  -0.00000   0.00000  -0.00005  -0.00005   0.00039
   D50       -1.01539   0.00008   0.00000   0.00100   0.00100  -1.01439
   D51        1.01606  -0.00008   0.00000  -0.00099  -0.00099   1.01507
   D52       -3.14122  -0.00000   0.00000  -0.00003  -0.00003  -3.14125
         Item               Value     Threshold  Converged?
 Maximum Force            0.021018     0.000450     NO 
 RMS     Force            0.003861     0.000300     NO 
 Maximum Displacement     0.076978     0.001800     NO 
 RMS     Displacement     0.027900     0.001200     NO 
 Predicted change in Energy=-1.828751D-03
 GradGradGradGradGradGradGradGradGradGradGradGradGradGradGradGradGradGrad

                          Input orientation:                          
 ---------------------------------------------------------------------
 Center     Atomic      Atomic             Coordinates (Angstroms)
 Number     Number       Type             X           Y           Z
 ---------------------------------------------------------------------
      1          6           0       -0.025570    0.000003   -0.017922
      2          8           0       -0.023724    0.000024    1.412814
      3          6           0        1.183141    0.000019    2.057549
      4          6           0        2.434017   -0.000133    1.425397
      5          6           0        3.616661   -0.000128    2.175754
      6          6           0        3.565729    0.000027    3.576290
      7          6           0        2.304893    0.000183    4.205335
      8          6           0        1.132574    0.000171    3.462362
      9          1           0        0.157839    0.000281    3.953750
     10          1           0        2.243492    0.000323    5.298141
     11          7           0        4.709655    0.000052    4.408109
     12          6           0        6.045748   -0.000027    4.063255
     13          6           0        7.003800   -0.000080    5.248680
     14          1           0        7.651479   -0.884754    5.174717
     15          1           0        7.651052    0.884944    5.175153
     16          1           0        6.513266   -0.000440    6.232747
     17          8           0        6.459141   -0.000002    2.906965
     18          1           0        4.509918   -0.000162    5.404125
     19          1           0        4.583219   -0.000241    1.676797
     20          1           0        2.511760   -0.000262    0.338090
     21          6           0       -1.469266    0.000166   -0.485433
     22          1           0       -1.510390    0.000040   -1.584275
     23          1           0       -1.998142   -0.891061   -0.119038
     24          1           0       -1.997885    0.891636   -0.119257
     25          1           0        0.508584   -0.893089   -0.392011
     26          1           0        0.508800    0.892957   -0.392031
 ---------------------------------------------------------------------
                    Distance matrix (angstroms):
                    1          2          3          4          5
     1  C    0.000000
     2  O    1.430737   0.000000
     3  C    2.401783   1.368285   0.000000
     4  C    2.851796   2.457773   1.401538   0.000000
     5  C    4.251830   3.719472   2.436389   1.400600   0.000000
     6  C    5.080924   4.191038   2.825474   2.430455   1.401461
     7  C    4.823583   3.636019   2.423079   2.782935   2.416595
     8  C    3.667925   2.353226   1.405723   2.417226   2.797507
     9  H    3.975904   2.547414   2.155648   3.401993   3.889051
    10  H    5.780066   4.498448   3.409660   3.877428   3.410996
    11  N    6.481674   5.601488   4.238093   3.751679   2.485567
    12  C    7.315525   6.622939   5.260019   4.472459   3.076219
    13  C    8.783458   8.006245   6.638026   5.958222   4.573357
    14  H    9.310390   8.593223   7.234567   6.485512   5.104518
    15  H    9.310299   8.593047   7.234392   6.485483   5.104514
    16  H    9.045840   8.121821   6.770709   6.304830   4.984928
    17  O    7.113821   6.652821   5.343940   4.289134   2.935024
    18  H    7.068893   6.040238   4.718794   4.487721   3.349670
    19  H    4.910500   4.614500   3.421331   2.163856   1.087747
    20  H    2.562184   2.753853   2.172963   1.090083   2.144251
    21  C    1.517506   2.385987   3.674510   4.345905   5.740084
    22  H    2.158276   3.345552   4.529679   4.961500   6.358024
    23  H    2.166855   2.653099   3.956276   4.777350   6.130730
    24  H    2.166865   2.653211   3.956310   4.777338   6.130697
    25  H    1.105838   2.082882   2.693143   2.794215   4.129278
    26  H    1.105837   2.082877   2.693050   2.794121   4.129155
                    6          7          8          9         10
     6  C    0.000000
     7  C    1.409045   0.000000
     8  C    2.435821   1.387927   0.000000
     9  H    3.428731   2.161744   1.091591   0.000000
    10  H    2.170964   1.094529   2.145745   2.481398   0.000000
    11  N    1.414386   2.413296   3.699993   4.574437   2.621854
    12  C    2.527375   3.743552   4.949783   5.888927   3.997761
    13  C    3.823247   4.813346   6.136956   6.967355   4.760565
    14  H    4.475618   5.505342   6.797895   7.643866   5.481324
    15  H    4.475411   5.504977   6.797576   7.643475   5.480820
    16  H    3.967963   4.671274   6.052014   6.751687   4.370864
    17  O    2.969820   4.352418   5.355445   6.387658   4.846589
    18  H    2.057298   2.509827   3.895753   4.587394   2.268902
    19  H    2.154845   3.403568   3.885254   4.976797   4.311433
    20  H    3.405406   3.872774   3.415147   4.314388   4.967300
    21  C    6.469063   6.020597   4.728071   4.727982   6.872722
    22  H    7.238675   6.933684   5.696825   5.783832   7.839597
    23  H    6.738409   6.165276   4.839639   4.693649   6.937713
    24  H    6.738385   6.165281   4.839678   4.693724   6.937717
    25  H    5.088340   5.016000   4.005430   4.450480   6.015474
    26  H    5.088193   5.015852   4.005310   4.450377   6.015315
                   11         12         13         14         15
    11  N    0.000000
    12  C    1.379880   0.000000
    13  C    2.443289   1.524171   0.000000
    14  H    3.166211   2.143936   1.098911   0.000000
    15  H    3.165945   2.143944   1.098913   1.769698   0.000000
    16  H    2.565602   2.219294   1.099550   1.788007   1.788007
    17  O    2.305241   1.227966   2.404222   2.710563   2.710804
    18  H    1.015847   2.038801   2.498722   3.271779   3.271478
    19  H    2.734236   2.798959   4.314807   4.736246   4.736417
    20  H    4.625559   5.134776   6.655248   7.112805   7.112882
    21  C    7.881993   8.784418  10.230978  10.770718  10.770575
    22  H    8.636992   9.433442  10.916992  11.419575  11.419499
    23  H    8.141480   9.109868  10.518613  11.006320  11.148525
    24  H    8.141441   9.109802  10.518567  11.148630  11.006035
    25  H    6.441107   7.162901   8.648856   9.055909   9.228737
    26  H    6.440947   7.162736   8.648709   9.228586   9.055682
                   16         17         18         19         20
    16  H    0.000000
    17  O    3.326222   0.000000
    18  H    2.167952   3.167851   0.000000
    19  H    4.947904   2.243300   3.728049   0.000000
    20  H    7.124537   4.709665   5.445856   2.466390   0.000000
    21  C   10.433348   8.623689   8.392707   6.427116   4.065312
    22  H   11.202004   9.147933   9.223982   6.911344   4.457935
    23  H   10.657506   9.026424   8.582184   6.879891   4.619709
    24  H   10.657553   9.026313   8.582223   6.879839   4.619691
    25  H    8.985569   6.862214   7.099520   4.656157   2.311472
    26  H    8.985513   6.862020   7.099439   4.656044   2.311442
                   21         22         23         24         25
    21  C    0.000000
    22  H    1.099612   0.000000
    23  H    1.099200   1.782942   0.000000
    24  H    1.099200   1.782939   1.782697   0.000000
    25  H    2.172216   2.509070   2.521546   3.089017   0.000000
    26  H    2.172222   2.509159   3.089014   2.521483   1.786046
                   26
    26  H    0.000000
 Stoichiometry    C10H13NO2
 Framework group  C1[X(C10H13NO2)]
 Deg. of freedom    72
 Full point group                 C1      NOp   1
 Largest Abelian subgroup         C1      NOp   1
 Largest concise Abelian subgroup C1      NOp   1
                         Standard orientation:                         
 ---------------------------------------------------------------------
 Center     Atomic      Atomic             Coordinates (Angstroms)
 Number     Number       Type             X           Y           Z
 ---------------------------------------------------------------------
      1          6           0        3.791366   -0.777923   -0.000015
      2          8           0        3.050313    0.445943   -0.000068
      3          6           0        1.683914    0.374122   -0.000050
      4          6           0        0.939793   -0.813562   -0.000109
      5          6           0       -0.460461   -0.782445   -0.000088
      6          6           0       -1.140724    0.442846   -0.000008
      7          6           0       -0.386471    1.633018    0.000055
      8          6           0        1.001129    1.602886    0.000027
      9          1           0        1.581605    2.527341    0.000065
     10          1           0       -0.898721    2.600279    0.000135
     11          7           0       -2.549936    0.563712    0.000027
     12          6           0       -3.515498   -0.422066    0.000030
     13          6           0       -4.948350    0.097583   -0.000039
     14          1           0       -5.464597   -0.300548   -0.884678
     15          1           0       -5.464433   -0.299832    0.885019
     16          1           0       -5.037026    1.193551   -0.000474
     17          8           0       -3.271769   -1.625601    0.000135
     18          1           0       -2.893735    1.519613   -0.000248
     19          1           0       -1.030026   -1.709154   -0.000129
     20          1           0        1.435212   -1.784562   -0.000178
     21          6           0        5.268914   -0.431977    0.000104
     22          1           0        5.872054   -1.351416    0.000034
     23          1           0        5.532291    0.154972   -0.891167
     24          1           0        5.532208    0.154774    0.891530
     25          1           0        3.527424   -1.374310   -0.893062
     26          1           0        3.527274   -1.374315    0.892984
 ---------------------------------------------------------------------
 Rotational constants (GHZ):           2.8501995           0.3039758           0.2761177
 Standard basis: 6-311+G(2d,p) (5D, 7F)
 There are   455 symmetry adapted cartesian basis functions of A   symmetry.
 There are   429 symmetry adapted basis functions of A   symmetry.
   429 basis functions,   650 primitive gaussians,   455 cartesian basis functions
    48 alpha electrons       48 beta electrons
       nuclear repulsion energy       746.2954435817 Hartrees.
 NAtoms=   26 NActive=   26 NUniq=   26 SFac= 1.00D+00 NAtFMM=   60 NAOKFM=F Big=F
 Integral buffers will be    131072 words long.
 Raffenetti 2 integral format.
 Two-electron integral symmetry is turned on.
 One-electron integrals computed using PRISM.
 NBasis=   429 RedAO= T EigKep=  1.31D-06  NBF=   429
 NBsUse=   428 1.00D-06 EigRej=  1.45D-07 NBFU=   428
 Initial guess from the checkpoint file:  "/scratch/webmo-4695/30/Gau-16457.chk"
 B after Tr=     0.000000   -0.000000   -0.000000
         Rot=    1.000000   -0.000000   -0.000000   -0.000044 Ang=  -0.01 deg.
 ExpMin= 4.38D-02 ExpMax= 8.59D+03 ExpMxC= 1.30D+03 IAcc=3 IRadAn=         5 AccDes= 0.00D+00
 Harris functional with IExCor= 1009 and IRadAn=       5 diagonalized for initial guess.
 HarFok:  IExCor= 1009 AccDes= 0.00D+00 IRadAn=         5 IDoV= 1 UseB2=F ITyADJ=14
 ICtDFT=  3500011 ScaDFX=  1.000000  1.000000  1.000000  1.000000
 FoFCou: FMM=F IPFlag=           0 FMFlag=      100000 FMFlg1=           0
         NFxFlg=           0 DoJE=T BraDBF=F KetDBF=T FulRan=T
         wScrn=  0.000000 ICntrl=       500 IOpCl=  0 I1Cent=   200000004 NGrid=           0
         NMat0=    1 NMatS0=      1 NMatT0=    0 NMatD0=    1 NMtDS0=    0 NMtDT0=    0
 Petite list used in FoFCou.
 Requested convergence on RMS density matrix=1.00D-08 within 128 cycles.
 Requested convergence on MAX density matrix=1.00D-06.
 Requested convergence on             energy=1.00D-06.
 No special actions if energy rises.
 SCF Done:  E(RPBE-PBE) =  -593.554151048     A.U. after   12 cycles
            NFock= 12  Conv=0.20D-08     -V/T= 2.0036
 Calling FoFJK, ICntrl=      2527 FMM=F ISym2X=0 I1Cent= 0 IOpClX= 0 NMat=1 NMatS=1 NMatT=0.
 ***** Axes restored to original set *****
 -------------------------------------------------------------------
 Center     Atomic                   Forces (Hartrees/Bohr)
 Number     Number              X              Y              Z
 -------------------------------------------------------------------
      1        6           0.000888397   -0.000000532   -0.003285827
      2        8          -0.002498492    0.000001411    0.002026435
      3        6           0.002576995   -0.000000887    0.000452492
      4        6           0.000223741    0.000000294    0.000478101
      5        6          -0.000304105    0.000000489   -0.000019531
      6        6          -0.000461546    0.000001937    0.000001166
      7        6           0.000146747   -0.000000662   -0.000475278
      8        6          -0.000255955   -0.000000475   -0.000591945
      9        1           0.000101013    0.000000406    0.000080187
     10        1           0.000008027   -0.000000205   -0.000016225
     11        7          -0.000644129   -0.000006394   -0.000665450
[...]
 1,-0.00000019,-0.00084561,-0.00263057,0.00000037,0.00153066,0.00236347
 ,-0.00000016,-0.01893208,0.00244132,-0.00000011,0.00266193,-0.00037301
 ,-0.00000014,-0.00039720,0.00006759,0.00000002,0.00002888,-0.00100052,
 0.00000023,0.00017719,0.06928048,0.00000525,-0.41122468,0.00140464,0.0
 0000031,-0.00950236,-0.00190544,-0.00000017,0.00054670,-0.00026659,0.0
 0000673,-0.00016098,-0.00026652,-0.00000681,-0.00016081,-0.00132184,0.
 00000031,0.00027132,0.00116397,-0.00000004,0.00367082,-0.06983417,-0.0
 0000565,0.43191543,0.00000793,0.,0.00039745,-0.00095907,0.00000010,0.0
 0032627,-0.00109720,0.00000026,-0.00311003,-0.01556975,0.00000210,0.00
 960012,-0.26996410,0.00002641,0.11952186,0.00431993,-0.00000008,-0.000
 37845,0.00084945,0.00000019,-0.00055539,0.00044354,-0.00000015,-0.0005
 7932,-0.00004900,-0.00000003,0.00001491,0.00018740,-0.00000001,-0.0004
 2244,-0.00289210,-0.00000003,0.00103087,0.00451065,-0.00000034,-0.0054
 6928,-0.00026363,0.00000003,0.00060422,-0.00006730,0.00002911,-0.00000
 691,-0.00006725,-0.00002910,-0.00000685,0.00015616,0.,0.00023060,-0.00
 664401,0.00000019,0.00214574,-0.00019310,0.00000002,0.00017111,0.28625
 998,0.,-0.00007966,0.,0.00000003,0.00020196,-0.00000006,0.00000038,0.0
 0672817,-0.00000033,0.00000021,0.00230985,-0.00000022,0.00002572,-0.03
 343650,-0.00001415,0.00000213,0.00445769,-0.00000121,0.00000029,0.0052
 6264,-0.00000083,-0.00000018,-0.00094226,0.00000007,-0.00000004,-0.000
 65388,0.00000005,0.00000010,0.00017479,-0.00000005,-0.00000043,-0.0035
 9411,0.00000044,0.00000018,0.00005625,-0.00000049,0.00000008,0.0007209
 6,0.,-0.00008135,0.00001088,-0.00004548,0.00008136,0.00001088,0.000045
 54,-0.00000005,0.00002329,0.,0.00000025,-0.00119586,0.00000040,0.00000
 004,-0.00034141,0.,-0.00002836,0.02412133,0.00004535,0.00000002,0.0003
 6093,-0.00131778,0.00000010,0.00020132,-0.00288153,-0.00000043,-0.0013
 7599,-0.01608998,0.00000185,0.01047657,0.11475259,-0.00001438,-0.11462
 462,0.02856621,-0.00000308,-0.00892477,-0.00093203,-0.00000080,-0.0055
 2488,-0.00086689,0.00000007,-0.00068641,0.00005470,0.00000005,0.000056
 51,0.00133721,-0.00000017,-0.00079839,-0.00184581,0.00000052,0.0022666
 7,0.00211620,-0.00000033,-0.00578967,-0.00010400,-0.00000006,0.0004553
 7,-0.00006688,0.00000751,-0.00000434,-0.00006686,-0.00000751,-0.000004
 31,0.00005164,-0.00000002,0.00025870,0.00030011,0.00000034,0.00360094,
 0.00007490,0.00000003,0.00000693,-0.12344180,0.00001594,0.11916769,-0.
 00201622,0.00000026,0.00102962,0.00157557,-0.00000036,-0.00188824,0.00
 468688,0.00000200,0.02626849,-0.05480576,0.00000379,0.02256412,0.00414
 177,-0.00000239,-0.02600066,-0.00364893,0.00000052,-0.00250400,-0.0013
 2289,0.00000003,-0.00029647,-0.00486412,0.00000084,0.00189752,-0.00004
 006,0.00000011,0.00145195,0.00007641,-0.00000005,0.00000597,0.00023652
 ,-0.00000001,-0.00124060,0.00047976,-0.00000003,-0.00039269,-0.0000428
 1,0.00000002,0.00002602,-0.00001932,0.00000107,-0.00000414,-0.00001931
 ,-0.00000108,-0.00000414,0.00000033,0.,0.00003367,-0.00008223,0.000000
 02,0.00038493,-0.00033070,-0.00000003,-0.00025734,0.00096351,-0.000000
 35,0.00028815,0.05650689,0.00000007,0.00003765,-0.00000020,-0.00000032
 ,-0.00241761,0.00000030,-0.00000018,0.00311605,-0.00000287,0.00000369,
 -0.02832932,-0.00002585,-0.00000001,0.00151619,0.00000077,0.00000055,0
 .00639349,-0.00000024,0.00000002,-0.00069352,0.00000016,0.00000089,0.0
 0466762,-0.00000054,-0.00000002,0.00000551,-0.00000014,-0.00000005,-0.
 00065660,0.00000005,0.00000004,0.00055750,-0.00000010,0.00000002,0.000
 01424,0.00000003,0.,-0.00002004,-0.00000002,0.00001225,-0.00000118,-0.
 00000041,-0.00001224,-0.00000118,0.00000041,0.,0.00000195,0.,0.,0.0000
 1766,-0.00000003,-0.00000004,-0.00007512,0.00000002,-0.00000030,-0.003
 88721,0.00000036,-0.00000432,0.02064416,-0.00180201,0.00000019,-0.0007
 7331,-0.00060024,0.00000024,-0.00049308,-0.00108796,-0.00000105,-0.010
 77135,0.02310081,-0.00002590,-0.32205582,0.00167504,-0.00000135,-0.013
 14015,-0.00265500,-0.00000023,0.00103182,0.00003180,0.00000012,0.00075
 907,0.00292425,-0.00000058,0.00021799,-0.00023493,-0.00000003,-0.00057
 984,-0.00001020,0.00000004,-0.00011114,0.00006475,-0.00000007,-0.00069
 869,0.00049377,-0.00000002,-0.00027864,-0.00005216,0.,-0.00000650,-0.0
 0001741,0.00000290,-0.00000813,-0.00001741,-0.00000290,-0.00000813,0.0
 0000064,0.,0.00000992,-0.00015776,0.,0.00022623,-0.00017727,-0.0000000
 2,-0.00009651,0.00005772,0.00000039,0.00101205,-0.01965432,0.00002807,
 0.34525402,-0.19425587,0.00000966,-0.03236498,-0.00005963,-0.00000023,
 -0.00812582,-0.00017293,0.00000006,0.00130596,-0.00027557,0.00000011,0
 .00023865,0.00013389,0.00000004,-0.00000426,0.00008163,-0.00000002,-0.
 00018051,-0.00031942,0.00000004,0.00006326,0.00057369,0.00000001,0.000
 42557,-0.00004052,0.,0.00000999,0.00003958,0.,0.00004146,0.00008182,0.
 ,0.00001209,-0.00006556,0.,0.00005681,0.00000282,0.,-0.00000411,0.0000
 0278,-0.00000058,0.00000229,0.00000278,0.00000058,0.00000229,-0.000000
 68,0.,0.00000212,0.00002128,0.,-0.00004305,-0.00000036,0.,-0.00000484,
 0.00002407,0.,0.00001615,-0.00012171,-0.00000009,-0.00045239,0.4687946
 8,0.00001046,-0.07671180,0.00000351,-0.00000171,0.00183901,-0.00000079
 ,0.00000005,0.00016621,-0.00000046,0.00000003,0.00047072,-0.00000015,0
 .,0.00027004,0.00000003,0.00000002,-0.00002853,0.,0.,-0.00002213,-0.00
 000003,-0.00000013,0.00021235,-0.00000005,0.,0.00003702,0.,-0.00000002
 ,-0.00003975,0.,-0.00000005,-0.00001837,0.,0.00000003,0.00001226,-0.00
 000002,0.,-0.00000377,0.,-0.00000083,-0.00000006,-0.00000132,0.0000008
 3,-0.00000006,0.00000132,0.,-0.00000029,0.,-0.00000001,-0.00000216,0.0
 0000002,0.,-0.00001374,0.,0.,0.00002872,0.,-0.00000009,-0.00055186,0.0
 0000008,0.00000461,0.54387086,-0.01990616,0.00000248,-0.07134018,-0.04
 397686,0.00000233,-0.03042644,0.00229319,-0.00000008,-0.00527913,0.000
 78915,-0.00000020,-0.00075847,-0.00052752,0.00000002,0.00026038,0.0001
 1708,0.00000004,0.00028026,0.00046719,-0.00000012,-0.00038236,-0.00212
 660,0.00000008,-0.00087556,0.00005148,0.00000002,0.00003015,-0.0001707
 3,0.,-0.00013121,-0.00038513,0.00000002,0.00000205,0.00031170,0.,-0.00
 022210,-0.00002408,-0.00000002,0.00000459,-0.00000864,0.00000458,-0.00
 000716,-0.00000864,-0.00000457,-0.00000717,0.00000309,0.,-0.00000411,-
 0.00011337,0.,0.00018022,0.00002406,0.,0.00002070,-0.00005645,0.,-0.00
 005862,-0.00029904,0.00000012,0.00072080,-0.02670212,0.00000266,0.5396
 1943,0.00342032,-0.00000225,-0.02848221,-0.00790750,0.00000046,-0.0035
 4229,0.00114069,0.,-0.00156454,0.00008739,-0.00000003,-0.00015284,-0.0
 0006539,0.,0.00005809,0.00005122,0.,0.00006105,0.00012182,-0.00000004,
 -0.00015622,-0.00072829,0.00000004,-0.00022421,0.00001951,0.,0.0000017
 6,-0.00006158,0.,-0.00004950,-0.00016618,0.,-0.00001408,0.00014809,0.,
 -0.00009688,-0.00001147,0.,0.00000071,-0.00000420,0.00000214,-0.000003
 62,-0.00000420,-0.00000214,-0.00000362,0.00000122,0.,-0.00000180,-0.00
 006010,0.,0.00007950,0.00000497,0.,0.00000624,-0.00001573,0.,-0.000017
 20,-0.00001120,0.00000002,0.00013615,-0.04410590,0.00000001,-0.0049616
 1,0.04675690,-0.00000044,-0.00256065,0.00000235,0.00000068,0.00059976,
 0.00000040,0.00000002,0.00066571,0.00000018,-0.00000002,-0.00006076,0.
 00000001,0.,-0.00006789,0.,0.,0.00001179,0.,-0.00000002,-0.00005657,0.
 00000003,0.00000008,0.00001045,0.00000001,0.,0.00001600,0.,0.,-0.00000
 591,0.,0.,0.00000796,0.,0.,0.00000341,0.,0.,-0.00000167,0.,0.00000058,
 -0.00000004,0.00000021,-0.00000058,-0.00000004,-0.00000021,0.,0.000000
 28,0.,0.,-0.00000323,0.,0.,0.00000152,0.,0.,0.00000207,0.,0.,0.0000537
 2,-0.00000002,-0.00000012,-0.04134906,-0.00001616,-0.00000008,0.041801
 21,0.00316988,-0.00000073,-0.00971844,-0.00353581,0.00000015,-0.000139
 69,0.00095145,0.00000002,0.00044877,-0.00017565,0.,-0.00018643,-0.0000
 4699,0.,0.00004811,0.00006161,0.,0.00006644,0.00005485,0.,-0.00001329,
 -0.00019650,0.,-0.00014151,0.00001822,0.,0.00003136,-0.00002299,0.,-0.
 00002379,-0.00021213,0.,-0.00002680,0.00020782,0.,-0.00011588,-0.00001
 888,0.,-0.00000253,-0.00000520,0.00000369,-0.00000474,-0.00000520,-0.0
 0000368,-0.00000474,0.00000182,0.,-0.00000304,-0.00009145,0.,0.0000934
 0,0.00000305,0.,0.00000616,-0.00001048,0.,-0.00001833,0.00003366,0.,0.
 00003210,-0.00753719,-0.00001574,-0.29818767,0.00881806,0.00001726,0.3
 2487891,-0.01774416,-0.02743407,0.01156568,0.00262335,0.00091985,0.001
 18602,-0.00007514,0.00023767,-0.00011612,-0.00018991,0.00011964,0.0001
 9789,0.00012587,0.00003334,-0.00007909,0.00002831,-0.00002422,-0.00004
 013,-0.00007821,-0.00000085,-0.00005214,0.00004735,0.00001555,0.000090
 41,0.00000349,-0.00000948,-0.00002561,-0.00000131,-0.00000867,-0.00000
 679,-0.00002776,0.00000158,-0.00002564,0.00004074,-0.00000296,0.000003
 65,-0.00000694,0.00000023,-0.00000339,-0.00000213,0.00000048,-0.000000
 97,-0.00000061,-0.00000058,-0.00000093,0.00000049,-0.00000073,-0.00000
 207,-0.00002670,0.00000627,-0.00000449,-0.00000388,-0.00000481,-0.0000
 0241,0.00001428,0.00000256,0.00001142,0.00014095,-0.00011194,-0.000162
 32,-0.09950373,-0.09665918,0.03965972,-0.00017596,0.00201297,-0.000435
 22,0.11171339,0.00014311,0.00030544,-0.00051781,0.00004246,0.00021689,
 -0.00041659,0.00013232,0.00008041,-0.00023465,0.00008558,-0.00001023,0
 .00010143,0.00004526,-0.00001701,-0.00001733,0.00001850,-0.00000078,0.
 00000156,-0.00000134,-0.00000472,-0.00003998,-0.00007098,0.00000963,0.
 00003619,-0.00000303,-0.00000750,-0.00002720,-0.00000691,-0.00000175,-
 0.00000564,-0.00001539,0.00000686,-0.00001268,0.00001795,-0.00000187,0
 .00000721,-0.00000412,-0.00000060,-0.00000165,-0.00000057,0.00000058,-
 0.00000025,-0.00000005,-0.00000052,-0.00000036,0.00000046,-0.00000046,
 -0.00000190,-0.00000928,0.00000263,-0.00000632,-0.00000203,-0.00000202
 ,0.00000147,0.00000735,0.00000080,0.00000500,0.00004446,0.00000532,-0.
 00000896,-0.09829762,-0.21519864,0.06987427,0.00148068,0.00047819,-0.0
 0075135,0.10808839,0.23058495,-0.00563233,-0.00896266,0.00172622,0.000
 83877,-0.00034496,0.00191352,-0.00054427,0.00006579,-0.00032405,-0.000
 00882,0.00000241,-0.00004161,0.00008348,0.00002249,0.00002459,0.000014
 02,0.00000460,-0.00009610,-0.00010038,0.00000609,-0.00002447,0.0001084
 1,0.00003111,0.00020074,-0.00000686,-0.00001435,-0.00003457,0.00000652
 ,-0.00000641,0.00001335,0.00009804,-0.00000657,0.00000856,-0.00009810,
 0.00000030,0.00005619,0.00000913,0.00000085,0.00000134,0.00000268,-0.0
 0000185,0.00000229,0.00000264,0.00000173,0.00000224,-0.00000103,0.0000
 0009,0.00000147,0.00004135,-0.00000163,-0.00004447,-0.00000294,-0.0000
 0085,-0.00000253,0.00000522,0.00000002,0.00000782,0.00004943,-0.000038
 06,-0.00003130,0.04153716,0.07019203,-0.07120094,0.01447750,0.02491603
 ,-0.00884547,-0.04367206,-0.07680270,0.07375690,-0.01773880,0.02743881
 ,0.01156262,0.00262302,-0.00092017,0.00118606,-0.00007520,-0.00023768,
 -0.00011603,-0.00018993,-0.00011956,0.00019789,0.00012584,-0.00003337,
 -0.00007909,0.00002830,0.00002421,-0.00004012,-0.00007819,0.00000085,-
 0.00005214,0.00004733,-0.00001554,0.00009038,0.00000349,0.00000947,-0.
 00002560,-0.00000131,0.00000866,-0.00000679,-0.00002776,-0.00000158,-0
 .00002564,0.00004074,0.00000296,0.00000365,-0.00000694,-0.00000023,-0.
 00000339,-0.00000061,0.00000058,-0.00000093,-0.00000213,-0.00000048,-0
 .00000097,0.00000049,0.00000073,-0.00000207,-0.00002669,-0.00000627,-0
 .00000449,-0.00000388,0.00000481,-0.00000241,0.00001428,-0.00000256,0.
 00001142,0.00014098,0.00011188,-0.00016232,-0.09946571,0.09664183,0.03
 963389,-0.00017665,-0.00201290,-0.00043481,0.00690535,-0.01183612,-0.0
 0585976,0.11167133,-0.00014054,0.00030142,0.00051561,-0.00004280,0.000
 21716,0.00041663,-0.00013232,0.00008048,0.00023461,-0.00008553,-0.0000
 1022,-0.00010146,-0.00004528,-0.00001699,0.00001735,-0.00001851,-0.000
 00079,-0.00000156,0.00000135,-0.00000471,0.00003999,0.00007099,0.00000
 961,-0.00003619,0.00000303,-0.00000750,0.00002720,0.00000691,-0.000001
 75,0.00000565,0.00001541,0.00000686,0.00001268,-0.00001798,-0.00000187
 ,-0.00000720,0.00000412,-0.00000059,0.00000165,0.00000005,-0.00000052,
 0.00000036,0.00000057,0.00000058,0.00000025,-0.00000046,-0.00000046,0.
 00000190,0.00000929,0.00000263,0.00000631,0.00000203,-0.00000202,-0.00
 000147,-0.00000735,0.00000080,-0.00000500,-0.00004448,0.00000532,0.000
 00898,0.09828065,-0.21525469,-0.06986417,-0.00147872,0.00047579,0.0007
 5027,0.01183032,-0.01897843,-0.00896324,-0.10807079,0.23064673,-0.0056
 3033,0.00896393,0.00172507,0.00083879,0.00034496,0.00191342,-0.0005442
 5,-0.00006584,-0.00032406,-0.00000879,-0.00000239,-0.00004160,0.000083
 48,-0.00002249,0.00002459,0.00001402,-0.00000462,-0.00009610,-0.000100
 38,-0.00000607,-0.00002447,0.00010838,-0.00003110,0.00020073,-0.000006
 85,0.00001435,-0.00003458,0.00000652,0.00000641,0.00001334,0.00009803,
 0.00000656,0.00000856,-0.00009809,-0.00000030,0.00005619,0.00000913,-0
 .00000084,0.00000134,0.00000264,-0.00000173,0.00000224,0.00000268,0.00
 000184,0.00000229,-0.00000103,-0.00000009,0.00000147,0.00004135,0.0000
 0163,-0.00004446,-0.00000294,0.00000085,-0.00000253,0.00000522,-0.0000
 0002,0.00000782,0.00004944,0.00003804,-0.00003130,0.04151097,-0.070182
 18,-0.07118369,0.01447272,-0.02492004,-0.00884236,-0.00585949,0.008967
 10,0.00291858,-0.04364355,0.07679174,0.07373768,-0.09971563,0.09204480
 ,0.03327953,0.00129481,-0.00068256,0.00315808,0.00080357,-0.00098803,-
 0.00031154,0.00027386,-0.00034908,0.00063757,-0.00034907,0.00044752,-0
 .00055901,-0.00036310,0.00013156,0.00053484,0.00063282,0.00001619,-0.0
 0005852,-0.00016146,0.00016471,-0.00030647,-0.00000720,0.00001212,-0.0
 0000933,0.00002020,-0.00000479,0.00002154,0.00032300,-0.00009390,0.000
 04007,-0.00026333,0.00000762,0.00018281,0.00001679,0.00000814,-0.00000
 151,0.00000607,-0.00000370,0.00000615,0.00000809,0.00000377,0.00000521
 ,-0.00000185,0.00000022,0.00000390,0.00010694,-0.00000767,-0.00015406,
 0.00000362,-0.00002116,-0.00001215,0.00001553,-0.00004912,0.00000235,-
 0.00081228,-0.00108323,-0.00062051,-0.01568357,0.02484545,0.00795727,0
 .00087123,-0.00007364,-0.00029591,0.00131572,-0.00026006,0.00072639,-0
 .00512314,-0.00040000,-0.00207401,0.11032992,0.09222143,-0.21012052,-0
 .05657298,-0.00283379,0.00598792,-0.00554146,0.00186468,0.00077394,0.0
 0086623,0.00050627,-0.00002832,-0.00106815,-0.00022468,-0.00003724,0.0
 0045804,0.00009670,-0.00006506,0.00001641,0.00006196,-0.00001860,0.000
 16721,-0.00041629,-0.00017840,-0.00035431,-0.00000789,-0.00000786,0.00
 009323,-0.00001910,-0.00000086,-0.00001132,-0.00028833,0.00003090,0.00
 002431,0.00020142,-0.00000741,-0.00022745,-0.00000340,-0.00000514,0.00
 001374,-0.00000523,0.00000326,-0.00000529,-0.00000447,-0.00000308,-0.0
 0000478,0.00000153,-0.00000088,0.00000120,-0.00004340,0.00001559,0.000
 19240,0.00000893,0.00000246,0.00002209,-0.00005279,0.00000990,-0.00004
 504,-0.00067158,-0.00020118,0.00046709,-0.00087506,0.00114191,0.001127
 39,0.00063950,-0.00001103,0.00036743,0.00021501,0.00097437,0.00013429,
 -0.00077250,0.00155869,0.00023484,-0.10162935,0.22087889,0.03202096,-0
 .05275172,-0.06154364,0.01255604,-0.02710728,-0.03370537,0.00676921,-0
 .00096336,0.00372087,-0.00069655,0.00021447,0.00076734,-0.00041929,0.0
 0026479,-0.00045100,-0.00036679,0.00001169,0.00060859,0.00073716,0.000
 28933,0.00023632,-0.00083973,0.00061273,-0.00160079,-0.00002144,-0.000
 20723,0.00017777,-0.00001818,-0.00005513,-0.00005491,-0.00039924,-0.00
 007027,-0.00006713,0.00035882,-0.00001511,-0.00027504,-0.00002704,0.00
 001022,0.00000593,-0.00001401,0.00000591,-0.00001032,-0.00000912,-0.00
 000589,-0.00000948,0.00000326,-0.00000073,-0.00000591,-0.00012272,0.00
 000726,0.00021598,-0.00000283,-0.00001116,0.00000824,-0.00003694,-0.00
 002227,-0.00003449,-0.00077072,-0.00075848,-0.00009001,-0.00490191,0.0
 0892950,0.00447259,0.00057934,-0.00007994,0.00033476,0.00043952,-0.000
 50822,0.00002398,-0.00266548,-0.00035897,-0.00001214,-0.03794021,0.066
 10605,0.08218143,-0.09974985,-0.09206333,0.03329696,0.00129497,0.00068
 317,0.00315882,0.00080362,0.00098828,-0.00031177,0.00027379,0.00034905
 ,0.00063768,-0.00034916,-0.00044756,-0.00055908,-0.00036318,-0.0001314
 2,0.00053491,0.00063287,-0.00001630,-0.00005854,-0.00016142,-0.0001647
 1,-0.00030644,-0.00000720,-0.00001211,-0.00000934,0.00002021,0.0000047
 8,0.00002154,0.00032309,0.00009387,0.00004005,-0.00026338,-0.00000761,
 0.00018286,0.00001679,-0.00000812,-0.00000151,0.00000809,-0.00000377,0
 .00000521,0.00000607,0.00000370,0.00000616,-0.00000185,-0.00000022,0.0
 0000391,0.00010696,0.00000767,-0.00015410,0.00000362,0.00002115,-0.000
 01216,0.00001554,0.00004912,0.00000235,-0.00081204,0.00108333,-0.00062
 073,-0.01568782,-0.02484134,0.00795916,0.00087100,0.00007345,-0.000296
 01,-0.00512284,0.00040097,-0.00207417,0.00131580,0.00026004,0.00072634
 ,0.00645845,0.01203046,-0.00421212,0.11036786,-0.09224010,-0.21007916,
 0.05657805,0.00283536,0.00598938,0.00553768,-0.00186411,0.00077413,-0.
 00086596,-0.00050633,-0.00002812,0.00106806,0.00022467,-0.00003727,-0.
 00045796,-0.00009666,-0.00006502,-0.00001643,-0.00006201,-0.00001865,-
 0.00016719,0.00041626,-0.00017843,0.00035430,0.00000789,-0.00000785,-0
 .00009322,0.00001909,-0.00000086,0.00001131,0.00028826,0.00003085,-0.0
 0002432,-0.00020136,-0.00000739,0.00022742,0.00000340,-0.00000512,-0.0
 0001374,0.00000447,-0.00000308,0.00000478,0.00000523,0.00000326,0.0000
 0529,-0.00000153,-0.00000088,-0.00000120,0.00004337,0.00001557,-0.0001
 9237,-0.00000893,0.00000245,-0.00002209,0.00005279,0.00000990,0.000045
 03,0.00067161,-0.00020154,-0.00046698,0.00087798,0.00114580,-0.0011286
 7,-0.00063962,-0.00001101,-0.00036731,0.00077362,0.00155846,-0.0002345
 9,-0.00021503,0.00097447,-0.00013452,-0.01203581,-0.02069227,0.0064637
 9,0.10164748,0.22083238,0.03203725,0.05275644,-0.06155194,0.01256078,0
 .02710187,-0.03370783,0.00676952,0.00096289,0.00372108,-0.00069647,-0.
 00021430,0.00076732,-0.00041940,-0.00026482,-0.00045101,-0.00036684,-0
 .00001153,0.00060866,0.00073720,-0.00028938,0.00023641,-0.00083976,-0.
 00061285,-0.00160075,-0.00002141,0.00020726,0.00017772,-0.00001817,0.0
 0005512,-0.00005491,-0.00039921,0.00007029,-0.00006714,0.00035881,0.00
 001509,-0.00027504,-0.00002704,-0.00001026,0.00000593,-0.00000911,0.00
 000589,-0.00000948,-0.00001402,-0.00000590,-0.00001032,0.00000325,0.00
 000073,-0.00000591,-0.00012271,-0.00000725,0.00021598,-0.00000283,0.00
 001118,0.00000824,-0.00003694,0.00002227,-0.00003450,-0.00077060,0.000
 75862,-0.00009007,-0.00490358,-0.00892837,0.00447365,0.00057948,0.0000
 7989,0.00033469,-0.00266544,0.00035935,-0.00001227,0.00043968,0.000508
 06,0.00002396,-0.00421247,-0.00646115,0.00510641,-0.03795998,-0.066109
 15,0.08219110\\-0.00007103,0.00000031,0.00010218,-0.00002192,-0.000000
 68,-0.00007815,0.00006637,0.00000041,0.00005763,0.00004396,-0.00000008
 ,0.00002656,-0.00000785,-0.00000028,-0.00000037,-0.00002842,-0.0000003
 6,0.00000003,0.00001396,0.00000025,-0.00002843,0.00000552,-0.00000003,
 -0.00002410,0.00001068,0.00000003,0.00000206,0.00000923,0.00000009,0.0
 0000007,-0.00007449,0.00000233,-0.00001778,0.00006364,-0.00000302,0.00
 012175,0.00000875,0.00000045,0.00001550,0.00000041,-0.00000354,-0.0000
 0709,0.00000062,0.00000389,-0.00000657,-0.00001509,0.00000016,-0.00002
 236,-0.00001909,0.00000093,-0.00009174,0.00001024,-0.00000092,-0.00000
 379,0.00000388,0.00000007,0.00001185,-0.00000139,-0.00000003,0.0000224
 2,-0.00003084,0.00000027,-0.00002540,0.00000388,-0.00000015,-0.0000205
 0,0.00000849,0.00000363,0.00000212,0.00000849,-0.00000366,0.00000198,0
 .00000595,-0.00000816,-0.00001904,0.00000606,0.00000810,-0.00001883\\\
 @


 THE WHOLE OF SCIENCE IS NOTHING MORE THAN A REFINEMENT OF EVERYDAY THINKING.
                                                              -- A. EINSTEIN
 Job cpu time:       0 days  1 hours 40 minutes 41.3 seconds.
 Elapsed time:       0 days  0 hours  6 minutes 17.8 seconds.
 File lengths (MBytes):  RWF=    400 Int=      0 D2E=      0 Chk=     16 Scr=      1
 Normal termination of Gaussian 16 at Wed Oct 20 10:29:21 2021.
