 Entering Gaussian System, Link 0=/usr/local/g16.b01/g16/g16
 Initial command:
 /usr/local/g16.b01/g16/l1.exe "/scratch/webmo-2626/94/Gau-38242.inp" -scrdir="/scratch/webmo-2626/94/"
 Entering Link 1 = /usr/local/g16.b01/g16/l1.exe PID=     38244.
  
 Copyright (c) 1988-2017, Gaussian, Inc.  All Rights Reserved.
  
 This is part of the Gaussian(R) 16 program.  It is based on
 the Gaussian(R) 09 system (copyright 2009, Gaussian, Inc.),
 the Gaussian(R) 03 system (copyright 2003, Gaussian, Inc.),
 the Gaussian(R) 98 system (copyright 1998, Gaussian, Inc.),
 the Gaussian(R) 94 system (copyright 1995, Gaussian, Inc.),
 the Gaussian 92(TM) system (copyright 1992, Gaussian, Inc.),
 the Gaussian 90(TM) system (copyright 1990, Gaussian, Inc.),
 the Gaussian 88(TM) system (copyright 1988, Gaussian, Inc.),
 the Gaussian 86(TM) system (copyright 1986, Carnegie Mellon
 University), and the Gaussian 82(TM) system (copyright 1983,
 Carnegie Mellon University). Gaussian is a federally registered
 trademark of Gaussian, Inc.
  
 This software contains proprietary and confidential information,
 including trade secrets, belonging to Gaussian, Inc.
  
 This software is provided under written license and may be
 used, copied, transmitted, or stored only in accord with that
 written license.
  
 The following legend is applicable only to US Government
 contracts under FAR:
  
                    RESTRICTED RIGHTS LEGEND
  
 Use, reproduction and disclosure by the US Government is
 subject to restrictions as set forth in subparagraphs (a)
 and (c) of the Commercial Computer Software - Restricted
 Rights clause in FAR 52.227-19.
  
 Gaussian, Inc.
 340 Quinnipiac St., Bldg. 40, Wallingford CT 06492
  
  
 ---------------------------------------------------------------
 Warning -- This program may not be used in any manner that
 competes with the business of Gaussian, Inc. or will provide
 assistance to any competitor of Gaussian, Inc.  The licensee
 of this program is prohibited from giving any competitor of
 Gaussian, Inc. access to this program.  By using this program,
 the user acknowledges that Gaussian, Inc. is engaged in the
 business of creating and licensing software in the field of
 computational chemistry and represents and warrants to the
 licensee that it is not a competitor of Gaussian, Inc. and that
 it will not use this program in any manner prohibited above.
 ---------------------------------------------------------------
  

 Cite this work as:
 Gaussian 16, Revision B.01,
 M. J. Frisch, G. W. Trucks, H. B. Schlegel, G. E. Scuseria, 
 M. A. Robb, J. R. Cheeseman, G. Scalmani, V. Barone, 
 G. A. Petersson, H. Nakatsuji, X. Li, M. Caricato, A. V. Marenich, 
 J. Bloino, B. G. Janesko, R. Gomperts, B. Mennucci, H. P. Hratchian, 
 J. V. Ortiz, A. F. Izmaylov, J. L. Sonnenberg, D. Williams-Young, 
 F. Ding, F. Lipparini, F. Egidi, J. Goings, B. Peng, A. Petrone, 
 T. Henderson, D. Ranasinghe, V. G. Zakrzewski, J. Gao, N. Rega, 
 G. Zheng, W. Liang, M. Hada, M. Ehara, K. Toyota, R. Fukuda, 
 J. Hasegawa, M. Ishida, T. Nakajima, Y. Honda, O. Kitao, H. Nakai, 
 T. Vreven, K. Throssell, J. A. Montgomery, Jr., J. E. Peralta, 
 F. Ogliaro, M. J. Bearpark, J. J. Heyd, E. N. Brothers, K. N. Kudin, 
 V. N. Staroverov, T. A. Keith, R. Kobayashi, J. Normand, 
 K. Raghavachari, A. P. Rendell, J. C. Burant, S. S. Iyengar, 
 J. Tomasi, M. Cossi, J. M. Millam, M. Klene, C. Adamo, R. Cammi, 
 J. W. Ochterski, R. L. Martin, K. Morokuma, O. Farkas, 
 J. B. Foresman, and D. J. Fox, Gaussian, Inc., Wallingford CT, 2016.
 
 ******************************************
 Gaussian 16:  EM64L-G16RevB.01 20-Dec-2017
                22-Mar-2022 
 ******************************************
 %NProcShared=4
 Will use up to    4 processors via shared memory.
 %Mem=8GB
 ---------------------------------------------
 #N PBEPBE/6-31G(d) OPT FREQ Geom=Connectivity
 ---------------------------------------------
 1/18=20,19=15,26=3,38=1,57=2/1,3;
 2/9=110,12=2,17=6,18=5,40=1/2;
 3/5=1,6=6,7=1,11=2,25=1,30=1,71=1,74=1009/1,2,3;
 4//1;
 5/5=2,38=5/2;
 6/7=2,8=2,9=2,10=2,28=1/1;
 7//1,2,3,16;
 1/18=20,19=15,26=3/3(2);
 2/9=110/2;
 99//99;
 2/9=110/2;
 3/5=1,6=6,7=1,11=2,25=1,30=1,71=1,74=1009/1,2,3;
 4/5=5,16=3,69=1/1;
 5/5=2,38=5/2;
 7//1,2,3,16;
 1/18=20,19=15,26=3/3(-5);
 2/9=110/2;
 6/7=2,8=2,9=2,10=2,19=2,28=1/1;
 99/9=1/99;
 ------------
 polyethylene
 ------------
 Symbolic Z-matrix:
 Charge =  0 Multiplicity = 1
 C
 C                    1    B1
 C                    2    B2       1    A1
 C                    3    B3       2    A2       1    D1       0
 C                    4    B4       3    A3       2    D2       0
 C                    5    B5       4    A4       3    D3       0
 C                    6    B6       5    A5       4    D4       0
 C                    7    B7       6    A6       5    D5       0
 C                    8    B8       7    A7       6    D6       0
 H                    9    B9       8    A8       7    D7       0
 H                    9    B10      8    A9       7    D8       0
 H                    9    B11      8    A10      7    D9       0
 H                    8    B12      7    A11      6    D10      0
 H                    8    B13      7    A12      6    D11      0
 H                    7    B14      6    A13      5    D12      0
 H                    7    B15      6    A14      5    D13      0
 H                    6    B16      5    A15      4    D14      0
 H                    6    B17      5    A16      4    D15      0
 H                    5    B18      4    A17      3    D16      0
 H                    5    B19      4    A18      3    D17      0
 H                    4    B20      3    A19      2    D18      0
 H                    4    B21      3    A20      2    D19      0
 H                    3    B22      2    A21      1    D20      0
 H                    3    B23      2    A22      1    D21      0
 H                    2    B24      1    A23      3    D22      0
 H                    2    B25      1    A24      3    D23      0
 H                    1    B26      2    A25      3    D24      0
 H                    1    B27      2    A26      3    D25      0
 H                    1    B28      2    A27      3    D26      0
       Variables:
  B1                    1.53427                  
  B2                    1.53726                  
  B3                    1.5373                   
  B4                    1.53729                  
  B5                    1.53729                  
  B6                    1.5373                   
  B7                    1.53726                  
  B8                    1.53427                  
  B9                    1.11474                  
  B10                   1.09389                  
  B11                   1.09389                  
  B12                   1.12974                  
  B13                   1.12974                  
  B14                   1.11925                  
  B15                   1.11925                  
  B16                   1.1199                   
  B17                   1.1199                   
  B18                   1.11394                  
  B19                   1.11394                  
  B20                   1.1199                   
  B21                   1.1199                   
  B22                   1.11925                  
  B23                   1.11925                  
  B24                   1.12974                  
  B25                   1.12974                  
  B26                   1.09389                  
  B27                   1.11474                  
  B28                   1.09389                  
  A1                  111.90398                  
  A2                  111.73571                  
  A3                  112.21345                  
  A4                  111.59778                  
  A5                  112.21345                  
  A6                  111.73571                  
  A7                  111.90398                  
  A8                  111.00205                  
  A9                  111.87171                  
  A10                 111.87171                  
  A11                 108.68004                  
  A12                 108.68004                  
  A13                 109.10131                  
  A14                 109.10131                  
  A15                 109.06115                  
  A16                 109.06115                  
  A17                 109.48551                  
  A18                 109.48551                  
  A19                 108.92511                  
  A20                 108.92511                  
  A21                 108.67275                  
  A22                 108.67275                  
  A23                 109.19577                  
  A24                 109.19577                  
  A25                 111.87171                  
  A26                 111.00205                  
  A27                 111.87171                  
  D1                  180.                       
  D2                  180.                       
  D3                  180.                       
  D4                  180.                       
  D5                  180.                       
  D6                 -180.                       
  D7                 -180.                       
  D8                  -59.97001                  
  D9                   59.97001                  
  D10                 -59.33448                  
  D11                  59.33448                  
  D12                 -59.81376                  
  D13                  59.81376                  
  D14                 -59.21918                  
  D15                  59.21918                  
  D16                 -58.62554                  
  D17                  58.62554                  
  D18                 -59.14069                  
  D19                  59.14069                  
  D20                 -59.56296                  
  D21                  59.56296                  
  D22                 120.3653                   
  D23                -120.3653                   
  D24                  59.97001                  
  D25                -180.                       
  D26                 -59.97001                  
 

 GradGradGradGradGradGradGradGradGradGradGradGradGradGradGradGradGradGrad
 Berny optimization.
 Initialization pass.
                           ----------------------------
                           !    Initial Parameters    !
                           ! (Angstroms and Degrees)  !
 --------------------------                            --------------------------
 ! Name  Definition              Value          Derivative Info.                !
 --------------------------------------------------------------------------------
 ! R1    R(1,2)                  1.5343         estimate D2E/DX2                !
 ! R2    R(1,27)                 1.0939         estimate D2E/DX2                !
 ! R3    R(1,28)                 1.1147         estimate D2E/DX2                !
 ! R4    R(1,29)                 1.0939         estimate D2E/DX2                !
 ! R5    R(2,3)                  1.5373         estimate D2E/DX2                !
 ! R6    R(2,25)                 1.1297         estimate D2E/DX2                !
 ! R7    R(2,26)                 1.1297         estimate D2E/DX2                !
 ! R8    R(3,4)                  1.5373         estimate D2E/DX2                !
 ! R9    R(3,23)                 1.1193         estimate D2E/DX2                !
 ! R10   R(3,24)                 1.1193         estimate D2E/DX2                !
 ! R11   R(4,5)                  1.5373         estimate D2E/DX2                !
 ! R12   R(4,21)                 1.1199         estimate D2E/DX2                !
 ! R13   R(4,22)                 1.1199         estimate D2E/DX2                !
 ! R14   R(5,6)                  1.5373         estimate D2E/DX2                !
 ! R15   R(5,19)                 1.1139         estimate D2E/DX2                !
 ! R16   R(5,20)                 1.1139         estimate D2E/DX2                !
 ! R17   R(6,7)                  1.5373         estimate D2E/DX2                !
 ! R18   R(6,17)                 1.1199         estimate D2E/DX2                !
 ! R19   R(6,18)                 1.1199         estimate D2E/DX2                !
 ! R20   R(7,8)                  1.5373         estimate D2E/DX2                !
 ! R21   R(7,15)                 1.1193         estimate D2E/DX2                !
 ! R22   R(7,16)                 1.1193         estimate D2E/DX2                !
 ! R23   R(8,9)                  1.5343         estimate D2E/DX2                !
 ! R24   R(8,13)                 1.1297         estimate D2E/DX2                !
 ! R25   R(8,14)                 1.1297         estimate D2E/DX2                !
 ! R26   R(9,10)                 1.1147         estimate D2E/DX2                !
 ! R27   R(9,11)                 1.0939         estimate D2E/DX2                !
 ! R28   R(9,12)                 1.0939         estimate D2E/DX2                !
 ! A1    A(2,1,27)             111.8717         estimate D2E/DX2                !
 ! A2    A(2,1,28)             111.0021         estimate D2E/DX2                !
 ! A3    A(2,1,29)             111.8717         estimate D2E/DX2                !
 ! A4    A(27,1,28)            107.4614         estimate D2E/DX2                !
 ! A5    A(27,1,29)            106.9209         estimate D2E/DX2                !
 ! A6    A(28,1,29)            107.4613         estimate D2E/DX2                !
 ! A7    A(1,2,3)              111.904          estimate D2E/DX2                !
 ! A8    A(1,2,25)             109.1958         estimate D2E/DX2                !
 ! A9    A(1,2,26)             109.1958         estimate D2E/DX2                !
 ! A10   A(3,2,25)             108.68           estimate D2E/DX2                !
 ! A11   A(3,2,26)             108.68           estimate D2E/DX2                !
 ! A12   A(25,2,26)            109.1446         estimate D2E/DX2                !
 ! A13   A(2,3,4)              111.7357         estimate D2E/DX2                !
 ! A14   A(2,3,23)             108.6727         estimate D2E/DX2                !
 ! A15   A(2,3,24)             108.6727         estimate D2E/DX2                !
 ! A16   A(4,3,23)             109.1013         estimate D2E/DX2                !
 ! A17   A(4,3,24)             109.1013         estimate D2E/DX2                !
 ! A18   A(23,3,24)            109.5321         estimate D2E/DX2                !
 ! A19   A(3,4,5)              112.2135         estimate D2E/DX2                !
 ! A20   A(3,4,21)             108.9251         estimate D2E/DX2                !
 ! A21   A(3,4,22)             108.9251         estimate D2E/DX2                !
 ! A22   A(5,4,21)             109.0611         estimate D2E/DX2                !
 ! A23   A(5,4,22)             109.0611         estimate D2E/DX2                !
 ! A24   A(21,4,22)            108.5886         estimate D2E/DX2                !
 ! A25   A(4,5,6)              111.5978         estimate D2E/DX2                !
 ! A26   A(4,5,19)             109.4855         estimate D2E/DX2                !
 ! A27   A(4,5,20)             109.4855         estimate D2E/DX2                !
 ! A28   A(6,5,19)             109.4855         estimate D2E/DX2                !
 ! A29   A(6,5,20)             109.4855         estimate D2E/DX2                !
 ! A30   A(19,5,20)            107.198          estimate D2E/DX2                !
 ! A31   A(5,6,7)              112.2135         estimate D2E/DX2                !
 ! A32   A(5,6,17)             109.0611         estimate D2E/DX2                !
 ! A33   A(5,6,18)             109.0611         estimate D2E/DX2                !
 ! A34   A(7,6,17)             108.9251         estimate D2E/DX2                !
 ! A35   A(7,6,18)             108.9251         estimate D2E/DX2                !
 ! A36   A(17,6,18)            108.5886         estimate D2E/DX2                !
 ! A37   A(6,7,8)              111.7357         estimate D2E/DX2                !
 ! A38   A(6,7,15)             109.1013         estimate D2E/DX2                !
 ! A39   A(6,7,16)             109.1013         estimate D2E/DX2                !
 ! A40   A(8,7,15)             108.6727         estimate D2E/DX2                !
 ! A41   A(8,7,16)             108.6727         estimate D2E/DX2                !
 ! A42   A(15,7,16)            109.5321         estimate D2E/DX2                !
 ! A43   A(7,8,9)              111.904          estimate D2E/DX2                !
 ! A44   A(7,8,13)             108.68           estimate D2E/DX2                !
 ! A45   A(7,8,14)             108.68           estimate D2E/DX2                !
 ! A46   A(9,8,13)             109.1958         estimate D2E/DX2                !
 ! A47   A(9,8,14)             109.1958         estimate D2E/DX2                !
 ! A48   A(13,8,14)            109.1446         estimate D2E/DX2                !
 ! A49   A(8,9,10)             111.0021         estimate D2E/DX2                !
 ! A50   A(8,9,11)             111.8717         estimate D2E/DX2                !
 ! A51   A(8,9,12)             111.8717         estimate D2E/DX2                !
 ! A52   A(10,9,11)            107.4613         estimate D2E/DX2                !
 ! A53   A(10,9,12)            107.4613         estimate D2E/DX2                !
 ! A54   A(11,9,12)            106.9209         estimate D2E/DX2                !
 ! D1    D(27,1,2,3)            59.97           estimate D2E/DX2                !
 ! D2    D(27,1,2,25)         -179.6647         estimate D2E/DX2                !
 ! D3    D(27,1,2,26)          -60.3953         estimate D2E/DX2                !
 ! D4    D(28,1,2,3)          -180.0            estimate D2E/DX2                !
 ! D5    D(28,1,2,25)          -59.6347         estimate D2E/DX2                !
 ! D6    D(28,1,2,26)           59.6347         estimate D2E/DX2                !
 ! D7    D(29,1,2,3)           -59.97           estimate D2E/DX2                !
 ! D8    D(29,1,2,25)           60.3953         estimate D2E/DX2                !
 ! D9    D(29,1,2,26)          179.6647         estimate D2E/DX2                !
 ! D10   D(1,2,3,4)            180.0            estimate D2E/DX2                !
 ! D11   D(1,2,3,23)           -59.563          estimate D2E/DX2                !
 ! D12   D(1,2,3,24)            59.563          estimate D2E/DX2                !
 ! D13   D(25,2,3,4)            59.3345         estimate D2E/DX2                !
 ! D14   D(25,2,3,23)          179.7715         estimate D2E/DX2                !
 ! D15   D(25,2,3,24)          -61.1026         estimate D2E/DX2                !
 ! D16   D(26,2,3,4)           -59.3345         estimate D2E/DX2                !
 ! D17   D(26,2,3,23)           61.1026         estimate D2E/DX2                !
 ! D18   D(26,2,3,24)         -179.7715         estimate D2E/DX2                !
 ! D19   D(2,3,4,5)            180.0            estimate D2E/DX2                !
 ! D20   D(2,3,4,21)           -59.1407         estimate D2E/DX2                !
 ! D21   D(2,3,4,22)            59.1407         estimate D2E/DX2                !
 ! D22   D(23,3,4,5)            59.8138         estimate D2E/DX2                !
 ! D23   D(23,3,4,21)         -179.3269         estimate D2E/DX2                !
 ! D24   D(23,3,4,22)          -61.0456         estimate D2E/DX2                !
 ! D25   D(24,3,4,5)           -59.8138         estimate D2E/DX2                !
 ! D26   D(24,3,4,21)           61.0456         estimate D2E/DX2                !
 ! D27   D(24,3,4,22)          179.3269         estimate D2E/DX2                !
 ! D28   D(3,4,5,6)            180.0            estimate D2E/DX2                !
 ! D29   D(3,4,5,19)           -58.6255         estimate D2E/DX2                !
 ! D30   D(3,4,5,20)            58.6255         estimate D2E/DX2                !
 ! D31   D(21,4,5,6)            59.2192         estimate D2E/DX2                !
 ! D32   D(21,4,5,19)         -179.4064         estimate D2E/DX2                !
 ! D33   D(21,4,5,20)          -62.1553         estimate D2E/DX2                !
 ! D34   D(22,4,5,6)           -59.2192         estimate D2E/DX2                !
 ! D35   D(22,4,5,19)           62.1553         estimate D2E/DX2                !
 ! D36   D(22,4,5,20)          179.4064         estimate D2E/DX2                !
 ! D37   D(4,5,6,7)            180.0            estimate D2E/DX2                !
 ! D38   D(4,5,6,17)           -59.2192         estimate D2E/DX2                !
 ! D39   D(4,5,6,18)            59.2192         estimate D2E/DX2                !
 ! D40   D(19,5,6,7)            58.6255         estimate D2E/DX2                !
 ! D41   D(19,5,6,17)          179.4064         estimate D2E/DX2                !
 ! D42   D(19,5,6,18)          -62.1553         estimate D2E/DX2                !
 ! D43   D(20,5,6,7)           -58.6255         estimate D2E/DX2                !
 ! D44   D(20,5,6,17)           62.1553         estimate D2E/DX2                !
 ! D45   D(20,5,6,18)         -179.4064         estimate D2E/DX2                !
 ! D46   D(5,6,7,8)            180.0            estimate D2E/DX2                !
 ! D47   D(5,6,7,15)           -59.8138         estimate D2E/DX2                !
 ! D48   D(5,6,7,16)            59.8138         estimate D2E/DX2                !
 ! D49   D(17,6,7,8)            59.1407         estimate D2E/DX2                !
 ! D50   D(17,6,7,15)          179.3269         estimate D2E/DX2                !
 ! D51   D(17,6,7,16)          -61.0456         estimate D2E/DX2                !
 ! D52   D(18,6,7,8)           -59.1407         estimate D2E/DX2                !
 ! D53   D(18,6,7,15)           61.0456         estimate D2E/DX2                !
 ! D54   D(18,6,7,16)         -179.3269         estimate D2E/DX2                !
 ! D55   D(6,7,8,9)            180.0            estimate D2E/DX2                !
 ! D56   D(6,7,8,13)           -59.3345         estimate D2E/DX2                !
 ! D57   D(6,7,8,14)            59.3345         estimate D2E/DX2                !
 ! D58   D(15,7,8,9)            59.563          estimate D2E/DX2                !
 ! D59   D(15,7,8,13)         -179.7715         estimate D2E/DX2                !
 ! D60   D(15,7,8,14)          -61.1026         estimate D2E/DX2                !
 ! D61   D(16,7,8,9)           -59.563          estimate D2E/DX2                !
 ! D62   D(16,7,8,13)           61.1026         estimate D2E/DX2                !
 ! D63   D(16,7,8,14)          179.7715         estimate D2E/DX2                !
 ! D64   D(7,8,9,10)           180.0            estimate D2E/DX2                !
 ! D65   D(7,8,9,11)           -59.97           estimate D2E/DX2                !
 ! D66   D(7,8,9,12)            59.97           estimate D2E/DX2                !
 ! D67   D(13,8,9,10)           59.6347         estimate D2E/DX2                !
 ! D68   D(13,8,9,11)          179.6647         estimate D2E/DX2                !
 ! D69   D(13,8,9,12)          -60.3953         estimate D2E/DX2                !
 ! D70   D(14,8,9,10)          -59.6347         estimate D2E/DX2                !
 ! D71   D(14,8,9,11)           60.3953         estimate D2E/DX2                !
 ! D72   D(14,8,9,12)         -179.6647         estimate D2E/DX2                !
 --------------------------------------------------------------------------------
 Trust Radius=3.00D-01 FncErr=1.00D-07 GrdErr=1.00D-06 EigMax=2.50D+02 EigMin=1.00D-04
 Number of steps in this run=    164 maximum allowed number of steps=    174.
 GradGradGradGradGradGradGradGradGradGradGradGradGradGradGradGradGradGrad

                          Input orientation:                          
 ---------------------------------------------------------------------
 Center     Atomic      Atomic             Coordinates (Angstroms)
 Number     Number       Type             X           Y           Z
 ---------------------------------------------------------------------
      1          6           0        0.000000    0.000000    0.000000
      2          6           0        0.000000    0.000000    1.534273
      3          6           0        1.426286    0.000000    2.107752
      4          6           0        1.421771    0.000000    3.645042
      5          6           0        2.843253   -0.000000    4.230404
      6          6           0        2.822220    0.000000    5.767550
      7          6           0        4.237337   -0.000000    6.368156
      8          6           0        4.203488   -0.000000    7.905043
      9          6           0        5.614055   -0.000000    8.508613
     10          1           0        5.571970   -0.000000    9.622563
     11          1           0        6.188562   -0.878883    8.201848
     12          1           0        6.188562    0.878883    8.201848
     13          1           0        3.649810    0.920565    8.254773
     14          1           0        3.649810   -0.920565    8.254773
     15          1           0        4.782255   -0.914209    6.021727
     16          1           0        4.782255    0.914209    6.021727
     17          1           0        2.275574    0.909391    6.125840
     18          1           0        2.275574   -0.909391    6.125840
     19          1           0        3.395018   -0.896589    3.866345
     20          1           0        3.395018    0.896589    3.866345
     21          1           0        0.877324    0.909391    4.006665
     22          1           0        0.877324   -0.909391    4.006665
     23          1           0        1.959148   -0.914209    1.743051
     24          1           0        1.959148    0.914209    1.743051
     25          1           0       -0.539343    0.920565    1.905728
     26          1           0       -0.539343   -0.920565    1.905728
     27          1           0        0.508037   -0.878883   -0.407507
     28          1           0       -1.040690    0.000000   -0.399526
     29          1           0        0.508037    0.878883   -0.407507
 ---------------------------------------------------------------------
                    Distance matrix (angstroms):
                    1          2          3          4          5
     1  C    0.000000
     2  C    1.534273   0.000000
     3  C    2.544977   1.537260   0.000000
     4  C    3.912514   2.544951   1.537297   0.000000
     5  C    5.097098   3.918317   2.552146   1.537290   0.000000
     6  C    6.421025   5.087785   3.916983   2.542892   1.537290
     7  C    7.649080   6.428175   5.104218   3.916983   2.552146
     8  C    8.953157   7.632563   6.428175   5.087785   3.918317
     9  C   10.193827   8.953157   7.649080   6.421025   5.097098
    10  H   11.119378   9.821775   8.582487   7.277012   6.043283
    11  H   10.312179   9.139326   7.783939   6.652759   5.266487
    12  H   10.312179   9.139326   7.783939   6.652759   5.266487
    13  H    9.072477   7.702835   6.601316   5.202040   4.206367
    14  H    9.072477   7.702835   6.601316   5.202040   4.206367
    15  H    7.743832   6.621403   5.236173   4.216309   2.793626
    16  H    7.743832   6.621403   5.236173   4.216309   2.793626
    17  H    6.597813   5.204585   4.206342   2.776748   2.177597
    18  H    6.597813   5.204585   4.206342   2.776748   2.177597
    19  H    5.222896   4.215279   2.787907   2.178658   1.113936
    20  H    5.222896   4.215279   2.787907   2.178658   1.113936
    21  H    4.201197   2.776583   2.175827   1.119905   2.177597
    22  H    4.201197   2.776583   2.175827   1.119905   2.177597
    23  H    2.777097   2.172010   1.119253   2.177641   2.793626
    24  H    2.777097   2.172010   1.119253   2.177641   2.793626
    25  H    2.184063   1.129739   2.179898   2.778241   4.206367
    26  H    2.184063   1.129739   2.179898   2.778241   4.206367
    27  H    1.093891   2.191129   2.818181   4.246233   5.266487
    28  H    1.114745   2.196045   3.517444   4.735213   6.043283
    29  H    1.093891   2.191129   2.818181   4.246233   5.266487
                    6          7          8          9         10
     6  C    0.000000
     7  C    1.537297   0.000000
     8  C    2.544951   1.537260   0.000000
     9  C    3.912514   2.544977   1.534273   0.000000
    10  H    4.735213   3.517444   2.196045   1.114745   0.000000
    11  H    4.246233   2.818181   2.191129   1.093891   1.780745
    12  H    4.246233   2.818181   2.191129   1.093891   1.780745
    13  H    2.778241   2.179898   1.129739   2.184063   2.532387
    14  H    2.778241   2.179898   1.129739   2.184063   2.532387
    15  H    2.177641   1.119253   2.172010   2.777097   3.798084
    16  H    2.177641   1.119253   2.172010   2.777097   3.798084
    17  H    1.119905   2.175827   2.776583   4.201197   4.890838
    18  H    1.119905   2.175827   2.776583   4.201197   4.890838
    19  H    2.178658   2.787907   4.215279   5.222896   6.219086
    20  H    2.178658   2.787907   4.215279   5.222896   6.219086
    21  H    2.776748   4.206342   5.204585   6.597813   7.375974
    22  H    2.776748   4.206342   5.204585   6.597813   7.375974
    23  H    4.216309   5.236173   6.621403   7.743832   8.716361
    24  H    4.216309   5.236173   6.621403   7.743832   8.716361
    25  H    5.202040   6.601316   7.702835   9.072477   9.886613
    26  H    5.202040   6.601316   7.702835   9.072477   9.886613
    27  H    6.652759   7.783939   9.139326  10.312179  11.270233
    28  H    7.277012   8.582487   9.821775  11.119378  12.007061
    29  H    6.652759   7.783939   9.139326  10.312179  11.270233
                   11         12         13         14         15
    11  H    0.000000
    12  H    1.757765   0.000000
    13  H    3.112246   2.539645   0.000000
    14  H    2.539645   3.112246   1.841131   0.000000
    15  H    2.594585   3.153697   3.104081   2.503790   0.000000
    16  H    3.153697   2.594585   2.503790   3.104081   1.828418
    17  H    4.776946   4.429697   2.533971   3.125640   3.101582
    18  H    4.429697   4.776946   3.125640   2.533971   2.508847
    19  H    5.157595   5.454610   4.756603   4.395884   2.563281
    20  H    5.454610   5.157595   4.395884   4.756602   3.138326
    21  H    7.000480   6.768289   5.072792   5.392758   4.757570
    22  H    6.768289   7.000480   5.392758   5.072792   4.394198
    23  H    7.720443   7.925855   6.973325   6.727622   5.126110
    24  H    7.925855   7.720443   6.727622   6.973325   5.442436
    25  H    9.388495   9.214530   7.606535   7.826183   6.973325
    26  H    9.214530   9.388495   7.826183   7.606535   6.727622
    27  H   10.314522  10.463226   9.388495   9.214530   7.720443
    28  H   11.270233  11.270233   9.886613   9.886613   8.716361
    29  H   10.463226  10.314522   9.214530   9.388495   7.925855
                   16         17         18         19         20
    16  H    0.000000
    17  H    2.508847   0.000000
    18  H    3.101582   1.818782   0.000000
    19  H    3.138326   3.101618   2.521633   0.000000
    20  H    2.563281   2.521633   3.101618   1.793178   0.000000
    21  H    4.394199   2.538897   3.123135   3.101618   2.521633
    22  H    4.757570   3.123135   2.538897   2.521633   3.101618
    23  H    5.442436   4.757570   4.394199   2.563281   3.138326
    24  H    5.126110   4.394198   4.757570   3.138326   2.563281
    25  H    6.727622   5.072792   5.392758   4.756603   4.395884
    26  H    6.973325   5.392758   5.072792   4.395884   4.756603
    27  H    7.925855   7.000480   6.768289   5.157595   5.454610
    28  H    8.716361   7.375974   7.375974   6.219086   6.219086
    29  H    7.720443   6.768289   7.000480   5.454610   5.157595
                   21         22         23         24         25
    21  H    0.000000
    22  H    1.818782   0.000000
    23  H    3.101582   2.508847   0.000000
    24  H    2.508847   3.101582   1.828418   0.000000
    25  H    2.533971   3.125640   3.104081   2.503790   0.000000
    26  H    3.125640   2.533971   2.503790   3.104081   1.841131
    27  H    4.776946   4.429697   2.594585   3.153697   3.112246
    28  H    4.890838   4.890838   3.798084   3.798084   2.532387
    29  H    4.429697   4.776946   3.153697   2.594585   2.539645
                   26         27         28         29
    26  H    0.000000
    27  H    2.539645   0.000000
    28  H    2.532387   1.780745   0.000000
    29  H    3.112246   1.757765   1.780745   0.000000
 Stoichiometry    C9H20
 Framework group  C2V[C2(C),SGV(C8H2),SGV'(H2),X(H16)]
 Deg. of freedom    24
 Full point group                 C2V     NOp   4
 Largest Abelian subgroup         C2V     NOp   4
 Largest concise Abelian subgroup C2V     NOp   4
                         Standard orientation:                         
 ---------------------------------------------------------------------
 Center     Atomic      Atomic             Coordinates (Angstroms)
 Number     Number       Type             X           Y           Z
 ---------------------------------------------------------------------
      1          6           0        0.000000   -5.096913    0.349469
      2          6           0        0.000000   -3.816282   -0.495502
      3          6           0        0.000000   -2.552109    0.379162
      4          6           0        0.000000   -1.271446   -0.471239
      5          6           0       -0.000000   -0.000000    0.392870
      6          6           0        0.000000    1.271446   -0.471239
      7          6           0        0.000000    2.552109    0.379162
      8          6           0        0.000000    3.816282   -0.495502
      9          6           0        0.000000    5.096913    0.349469
     10          1           0       -0.000000    6.003531   -0.299145
     11          1           0       -0.878883    5.157261    0.997945
     12          1           0        0.878883    5.157261    0.997945
     13          1           0        0.920565    3.803268   -1.150255
     14          1           0       -0.920565    3.803268   -1.150255
     15          1           0       -0.914209    2.563055    1.024785
     16          1           0        0.914209    2.563055    1.024785
     17          1           0        0.909391    1.269449   -1.124837
     18          1           0       -0.909391    1.269449   -1.124837
     19          1           0       -0.896589   -0.000000    1.053917
     20          1           0        0.896589   -0.000000    1.053917
     21          1           0        0.909391   -1.269449   -1.124837
     22          1           0       -0.909391   -1.269449   -1.124837
     23          1           0       -0.914209   -2.563055    1.024785
     24          1           0        0.914209   -2.563055    1.024785
     25          1           0        0.920565   -3.803268   -1.150255
     26          1           0       -0.920565   -3.803268   -1.150255
     27          1           0       -0.878883   -5.157261    0.997945
     28          1           0       -0.000000   -6.003531   -0.299145
     29          1           0        0.878883   -5.157261    0.997945
 ---------------------------------------------------------------------
 Rotational constants (GHZ):           9.1208080           0.3475420           0.3415059
 Standard basis: 6-31G(d) (6D, 7F)
 There are    64 symmetry adapted cartesian basis functions of A1  symmetry.
 There are    25 symmetry adapted cartesian basis functions of A2  symmetry.
 There are    29 symmetry adapted cartesian basis functions of B1  symmetry.
 There are    57 symmetry adapted cartesian basis functions of B2  symmetry.
 There are    64 symmetry adapted basis functions of A1  symmetry.
 There are    25 symmetry adapted basis functions of A2  symmetry.
 There are    29 symmetry adapted basis functions of B1  symmetry.
 There are    57 symmetry adapted basis functions of B2  symmetry.
   175 basis functions,   332 primitive gaussians,   175 cartesian basis functions
    37 alpha electrons       37 beta electrons
       nuclear repulsion energy       442.9120815888 Hartrees.
 NAtoms=   29 NActive=   29 NUniq=   11 SFac= 4.00D+00 NAtFMM=   60 NAOKFM=F Big=F
 Integral buffers will be    131072 words long.
 Raffenetti 2 integral format.
 Two-electron integral symmetry is turned on.
 One-electron integrals computed using PRISM.
 NBasis=   175 RedAO= T EigKep=  2.64D-03  NBF=    64    25    29    57
 NBsUse=   175 1.00D-06 EigRej= -1.00D+00 NBFU=    64    25    29    57
 ExpMin= 1.61D-01 ExpMax= 3.05D+03 ExpMxC= 4.57D+02 IAcc=3 IRadAn=         5 AccDes= 0.00D+00
 Harris functional with IExCor= 1009 and IRadAn=       5 diagonalized for initial guess.
 HarFok:  IExCor= 1009 AccDes= 0.00D+00 IRadAn=         5 IDoV= 1 UseB2=F ITyADJ=14
 ICtDFT=  3500011 ScaDFX=  1.000000  1.000000  1.000000  1.000000
 FoFCou: FMM=F IPFlag=           0 FMFlag=      100000 FMFlg1=           0
         NFxFlg=           0 DoJE=T BraDBF=F KetDBF=T FulRan=T
         wScrn=  0.000000 ICntrl=       500 IOpCl=  0 I1Cent=   200000004 NGrid=           0
         NMat0=    1 NMatS0=      1 NMatT0=    0 NMatD0=    1 NMtDS0=    0 NMtDT0=    0
 Petite list used in FoFCou.
 Initial guess orbital symmetries:
       Occupied  (B2) (A1) (A1) (B2) (A1) (B2) (A1) (B2) (A1) (A1)
                 (B2) (A1) (B2) (A1) (B2) (A1) (A1) (B2) (B1) (A2)
                 (A1) (B1) (B2) (B2) (A1) (A2) (B2) (B1) (A1) (A1)
                 (A2) (B2) (A1) (B1) (B2) (A2) (B1)
       Virtual   (A1) (B2) (A1) (B1) (A1) (B2) (A2) (B2) (A1) (A1)
                 (B1) (B2) (A1) (B2) (A1) (A2) (B2) (A1) (B1) (A2)
                 (A2) (B1) (B1) (B2) (B2) (A1) (A1) (B2) (A1) (B2)
                 (A1) (B2) (A1) (B2) (B1) (A2) (B1) (A2) (A1) (B2)
                 (A1) (B1) (B2) (A1) (A2) (B2) (A1) (A1) (B1) (B1)
                 (A2) (B2) (B2) (B1) (A1) (A2) (A1) (B1) (B2) (A1)
                 (A2) (B2) (A1) (B2) (A1) (B1) (B2) (A2) (A1) (A1)
                 (B1) (B2) (A1) (B2) (A2) (B2) (B1) (A2) (A1) (A1)
                 (B2) (B2) (A1) (B2) (A1) (A1) (B2) (A1) (B1) (B2)
                 (A2) (B2) (B1) (A1) (B2) (A2) (A1) (B2) (B1) (B2)
                 (A1) (A2) (A1) (A1) (B2) (B1) (A2) (A1) (B2) (B1)
                 (B1) (A2) (A1) (A2) (B1) (B1) (B2) (A2) (A2) (B1)
                 (A1) (A1) (B2) (B2) (A1) (A1) (B2) (A1) (B2) (A1)
                 (B2) (A1) (B2) (A1) (B2) (A1) (B2) (A1)
 The electronic state of the initial guess is 1-A1.
 Keep J ints in memory in symmetry-blocked form, NReq=148961077.
 Requested convergence on RMS density matrix=1.00D-08 within 128 cycles.
 Requested convergence on MAX density matrix=1.00D-06.
 Requested convergence on             energy=1.00D-06.
 No special actions if energy rises.
 Integral accuracy reduced to 1.0D-05 until final iterations.
 Initial convergence to 1.0D-05 achieved.  Increase integral accuracy.
 SCF Done:  E(RPBE-PBE) =  -354.487660702     A.U. after   12 cycles
            NFock= 12  Conv=0.27D-08     -V/T= 2.0114

 **********************************************************************

            Population analysis using the SCF Density.

 **********************************************************************

 Orbital symmetries:
       Occupied  (B2) (A1) (B2) (A1) (A1) (B2) (A1) (B2) (A1) (A1)
                 (B2) (A1) (B2) (A1) (B2) (A1) (A1) (B2) (B1) (A2)
                 (B1) (A1) (B2) (A2) (A1) (B2) (B1) (B2) (A1) (A2)
                 (A1) (B1) (B2) (B1) (A2) (A1) (B2)
       Virtual   (A1) (B2) (B1) (A1) (A1) (A2) (B2) (B2) (A1) (B1)
                 (A1) (B2) (A1) (A2) (B1) (A2) (B2) (B1) (A2) (B1)
                 (A1) (B2) (A1) (B2) (A1) (B2) (A1) (B2) (A1) (B2)
                 (A1) (B2) (B1) (A2) (A1) (B1) (B2) (A2) (A1) (B1)
                 (B2) (A1) (B2) (A1) (A2) (B2) (A1) (A1) (B1) (B1)
                 (A2) (B2) (B2) (B1) (A1) (A2) (A1) (B1) (B2) (A1)
                 (A2) (B2) (A1) (B1) (B2) (A1) (A2) (B2) (A1) (B1)
                 (A1) (B2) (A1) (B2) (A2) (B2) (B1) (A1) (A2) (B2)
                 (A1) (A1) (B2) (B2) (A1) (A1) (B2) (B1) (A1) (B2)
                 (A2) (B2) (B1) (B2) (A1) (A2) (A1) (B2) (B1) (B2)
                 (A1) (A2) (A1) (B2) (A1) (B1) (A1) (A2) (B1) (B2)
                 (B1) (A2) (A1) (A2) (B1) (B1) (B2) (A2) (A2) (B1)
                 (A1) (A1) (B2) (B2) (A1) (A1) (B2) (A1) (B2) (A1)
                 (B2) (A1) (B2) (A1) (B2) (A1) (B2) (A1)
 The electronic state is 1-A1.
 Alpha  occ. eigenvalues --   -9.89364  -9.89364  -9.88924  -9.88924  -9.88914
 Alpha  occ. eigenvalues --   -9.88913  -9.88796  -9.88107  -9.88107  -0.72743
 Alpha  occ. eigenvalues --   -0.70909  -0.67945  -0.64016  -0.59443  -0.54498
 Alpha  occ. eigenvalues --   -0.50803  -0.50417  -0.49744  -0.42743  -0.41087
 Alpha  occ. eigenvalues --   -0.38394  -0.37595  -0.37047  -0.35300  -0.34627
 Alpha  occ. eigenvalues --   -0.34399  -0.32157  -0.31500  -0.29586  -0.29404
 Alpha  occ. eigenvalues --   -0.28626  -0.27760  -0.27653  -0.27315  -0.27278
 Alpha  occ. eigenvalues --   -0.27231  -0.24418
 Alpha virt. eigenvalues --    0.06265   0.07096   0.08308   0.08363   0.09599
 Alpha virt. eigenvalues --    0.10521   0.10623   0.11836   0.13530   0.13839
 Alpha virt. eigenvalues --    0.14142   0.14790   0.16570   0.16596   0.16815
 Alpha virt. eigenvalues --    0.16993   0.17347   0.17540   0.17929   0.18161
 Alpha virt. eigenvalues --    0.18433   0.19463   0.19891   0.21788   0.22805
 Alpha virt. eigenvalues --    0.23926   0.27771   0.28240   0.44506   0.46003
 Alpha virt. eigenvalues --    0.46895   0.49587   0.52231   0.52566   0.52884
 Alpha virt. eigenvalues --    0.54215   0.54603   0.54858   0.56599   0.59228
 Alpha virt. eigenvalues --    0.59576   0.61788   0.62997   0.65694   0.66344
 Alpha virt. eigenvalues --    0.67222   0.69348   0.71794   0.73250   0.76210
 Alpha virt. eigenvalues --    0.76382   0.76410   0.77859   0.78568   0.80499
 Alpha virt. eigenvalues --    0.80691   0.84158   0.84307   0.84713   0.86487
 Alpha virt. eigenvalues --    0.87165   0.88300   0.88765   0.89178   0.89187
 Alpha virt. eigenvalues --    0.89382   0.90162   0.91019   0.91813   0.91952
 Alpha virt. eigenvalues --    0.92368   0.93482   0.95579   1.02349   1.03763
 Alpha virt. eigenvalues --    1.19271   1.22189   1.29295   1.33176   1.35406
 Alpha virt. eigenvalues --    1.36102   1.40036   1.41150   1.42952   1.47592
 Alpha virt. eigenvalues --    1.49585   1.55202   1.63713   1.66483   1.69060
 Alpha virt. eigenvalues --    1.75199   1.80441   1.80543   1.82821   1.83111
 Alpha virt. eigenvalues --    1.84560   1.85466   1.87259   1.88600   1.90409
 Alpha virt. eigenvalues --    1.91294   1.93373   1.95045   1.96409   1.96517
 Alpha virt. eigenvalues --    1.98622   2.02227   2.04326   2.10898   2.11439
 Alpha virt. eigenvalues --    2.15392   2.17280   2.20475   2.20676   2.25409
 Alpha virt. eigenvalues --    2.27238   2.28978   2.31196   2.32949   2.34873
 Alpha virt. eigenvalues --    2.41571   2.46986   2.49768   2.51362   2.59322
 Alpha virt. eigenvalues --    2.59854   2.67543   2.76577   2.80052   4.02238
 Alpha virt. eigenvalues --    4.06425   4.12916   4.19950   4.25779   4.29910
 Alpha virt. eigenvalues --    4.35047   4.42943   4.51521
          Condensed to atoms (all electrons):
               1          2          3          4          5          6
     1  C    5.127377   0.365305  -0.045933   0.004123  -0.000151   0.000001
     2  C    0.365305   5.008211   0.376458  -0.038627   0.003866  -0.000132
     3  C   -0.045933   0.376458   5.039913   0.370025  -0.037768   0.003751
     4  C    0.004123  -0.038627   0.370025   5.044180   0.367179  -0.038422
     5  C   -0.000151   0.003866  -0.037768   0.367179   5.050479   0.367179
     6  C    0.000001  -0.000132   0.003751  -0.038422   0.367179   5.044180
     7  C   -0.000000   0.000001  -0.000133   0.003751  -0.037768   0.370025
     8  C    0.000000  -0.000000   0.000001  -0.000132   0.003866  -0.038627
     9  C   -0.000000   0.000000  -0.000000   0.000001  -0.000151   0.004123
    10  H    0.000000  -0.000000   0.000000  -0.000000   0.000001  -0.000152
    11  H   -0.000000   0.000000   0.000000   0.000000   0.000001   0.000044
    12  H   -0.000000   0.000000   0.000000   0.000000   0.000001   0.000044
    13  H    0.000000   0.000000   0.000000   0.000002   0.000055  -0.003987
    14  H    0.000000   0.000000   0.000000   0.000002   0.000055  -0.003987
    15  H    0.000000   0.000000   0.000002   0.000059  -0.003642  -0.039521
    16  H    0.000000   0.000000   0.000002   0.000059  -0.003642  -0.039521
    17  H    0.000000   0.000002   0.000053  -0.003621  -0.039947   0.367633
    18  H    0.000000   0.000002   0.000053  -0.003621  -0.039947   0.367633
    19  H    0.000002   0.000037  -0.003550  -0.038845   0.367629  -0.038845
    20  H    0.000002   0.000037  -0.003550  -0.038845   0.367629  -0.038845
    21  H    0.000056  -0.003855  -0.039888   0.367633  -0.039947  -0.003621
    22  H    0.000056  -0.003855  -0.039888   0.367633  -0.039947  -0.003621
    23  H   -0.003117  -0.041293   0.367867  -0.039521  -0.003642   0.000059
    24  H   -0.003117  -0.041293   0.367867  -0.039521  -0.003642   0.000059
    25  H   -0.039020   0.370952  -0.040776  -0.003987   0.000055   0.000002
    26  H   -0.039020   0.370952  -0.040776  -0.003987   0.000055   0.000002
    27  H    0.374770  -0.033720  -0.004770   0.000044   0.000001   0.000000
    28  H    0.365299  -0.026919   0.004401  -0.000152   0.000001  -0.000000
    29  H    0.374770  -0.033720  -0.004770   0.000044   0.000001   0.000000
               7          8          9         10         11         12
     1  C   -0.000000   0.000000  -0.000000   0.000000  -0.000000  -0.000000
     2  C    0.000001  -0.000000   0.000000  -0.000000   0.000000   0.000000
     3  C   -0.000133   0.000001  -0.000000   0.000000   0.000000   0.000000
     4  C    0.003751  -0.000132   0.000001  -0.000000   0.000000   0.000000
     5  C   -0.037768   0.003866  -0.000151   0.000001   0.000001   0.000001
     6  C    0.370025  -0.038627   0.004123  -0.000152   0.000044   0.000044
     7  C    5.039913   0.376458  -0.045933   0.004401  -0.004770  -0.004770
     8  C    0.376458   5.008211   0.365305  -0.026919  -0.033720  -0.033720
     9  C   -0.045933   0.365305   5.127377   0.365299   0.374770   0.374770
    10  H    0.004401  -0.026919   0.365299   0.573396  -0.030616  -0.030616
    11  H   -0.004770  -0.033720   0.374770  -0.030616   0.565284  -0.033672
    12  H   -0.004770  -0.033720   0.374770  -0.030616  -0.033672   0.565284
    13  H   -0.040776   0.370952  -0.039020  -0.002790   0.005200  -0.004501
    14  H   -0.040776   0.370952  -0.039020  -0.002790  -0.004501   0.005200
    15  H    0.367867  -0.041293  -0.003117  -0.000024   0.005501  -0.000453
    16  H    0.367867  -0.041293  -0.003117  -0.000024  -0.000453   0.005501
    17  H   -0.039888  -0.003855   0.000056   0.000002   0.000008   0.000003
    18  H   -0.039888  -0.003855   0.000056   0.000002   0.000003   0.000008
    19  H   -0.003550   0.000037   0.000002   0.000000  -0.000002   0.000001
    20  H   -0.003550   0.000037   0.000002   0.000000   0.000001  -0.000002
    21  H    0.000053   0.000002   0.000000   0.000000  -0.000000   0.000000
    22  H    0.000053   0.000002   0.000000   0.000000   0.000000  -0.000000
    23  H    0.000002   0.000000   0.000000   0.000000  -0.000000   0.000000
    24  H    0.000002   0.000000   0.000000   0.000000   0.000000  -0.000000
    25  H    0.000000   0.000000   0.000000  -0.000000   0.000000  -0.000000
    26  H    0.000000   0.000000   0.000000  -0.000000  -0.000000   0.000000
    27  H    0.000000   0.000000  -0.000000   0.000000   0.000000  -0.000000
    28  H    0.000000  -0.000000   0.000000  -0.000000   0.000000   0.000000
    29  H    0.000000   0.000000  -0.000000   0.000000  -0.000000   0.000000
              13         14         15         16         17         18
     1  C    0.000000   0.000000   0.000000   0.000000   0.000000   0.000000
     2  C    0.000000   0.000000   0.000000   0.000000   0.000002   0.000002
     3  C    0.000000   0.000000   0.000002   0.000002   0.000053   0.000053
     4  C    0.000002   0.000002   0.000059   0.000059  -0.003621  -0.003621
     5  C    0.000055   0.000055  -0.003642  -0.003642  -0.039947  -0.039947
     6  C   -0.003987  -0.003987  -0.039521  -0.039521   0.367633   0.367633
     7  C   -0.040776  -0.040776   0.367867   0.367867  -0.039888  -0.039888
     8  C    0.370952   0.370952  -0.041293  -0.041293  -0.003855  -0.003855
     9  C   -0.039020  -0.039020  -0.003117  -0.003117   0.000056   0.000056
    10  H   -0.002790  -0.002790  -0.000024  -0.000024   0.000002   0.000002
    11  H    0.005200  -0.004501   0.005501  -0.000453   0.000008   0.000003
    12  H   -0.004501   0.005200  -0.000453   0.005501   0.000003   0.000008
    13  H    0.602867  -0.033587   0.005871  -0.005505   0.006048  -0.000479
    14  H   -0.033587   0.602867  -0.005505   0.005871  -0.000479   0.006048
    15  H    0.005871  -0.005505   0.604816  -0.034586   0.005826  -0.005405
    16  H   -0.005505   0.005871  -0.034586   0.604816  -0.005405   0.005826
    17  H    0.006048  -0.000479   0.005826  -0.005405   0.605222  -0.035545
    18  H   -0.000479   0.006048  -0.005405   0.005826  -0.035545   0.605222
    19  H    0.000006   0.000006   0.005550  -0.000466   0.005805  -0.005440
    20  H    0.000006   0.000006  -0.000466   0.005550  -0.005440   0.005805
    21  H   -0.000003   0.000001   0.000006   0.000006   0.005774  -0.000475
    22  H    0.000001  -0.000003   0.000006   0.000006  -0.000475   0.005774
    23  H   -0.000000   0.000000  -0.000002   0.000001   0.000006   0.000006
    24  H    0.000000  -0.000000   0.000001  -0.000002   0.000006   0.000006
    25  H   -0.000000   0.000000  -0.000000   0.000000  -0.000003   0.000001
    26  H    0.000000  -0.000000   0.000000  -0.000000   0.000001  -0.000003
    27  H    0.000000  -0.000000  -0.000000   0.000000  -0.000000   0.000000
    28  H   -0.000000  -0.000000   0.000000   0.000000   0.000000   0.000000
    29  H   -0.000000   0.000000   0.000000  -0.000000   0.000000  -0.000000
              19         20         21         22         23         24
     1  C    0.000002   0.000002   0.000056   0.000056  -0.003117  -0.003117
     2  C    0.000037   0.000037  -0.003855  -0.003855  -0.041293  -0.041293
     3  C   -0.003550  -0.003550  -0.039888  -0.039888   0.367867   0.367867
     4  C   -0.038845  -0.038845   0.367633   0.367633  -0.039521  -0.039521
     5  C    0.367629   0.367629  -0.039947  -0.039947  -0.003642  -0.003642
     6  C   -0.038845  -0.038845  -0.003621  -0.003621   0.000059   0.000059
     7  C   -0.003550  -0.003550   0.000053   0.000053   0.000002   0.000002
     8  C    0.000037   0.000037   0.000002   0.000002   0.000000   0.000000
     9  C    0.000002   0.000002   0.000000   0.000000   0.000000   0.000000
    10  H    0.000000   0.000000   0.000000   0.000000   0.000000   0.000000
    11  H   -0.000002   0.000001  -0.000000   0.000000  -0.000000   0.000000
    12  H    0.000001  -0.000002   0.000000  -0.000000   0.000000  -0.000000
    13  H    0.000006   0.000006  -0.000003   0.000001  -0.000000   0.000000
    14  H    0.000006   0.000006   0.000001  -0.000003   0.000000  -0.000000
    15  H    0.005550  -0.000466   0.000006   0.000006  -0.000002   0.000001
    16  H   -0.000466   0.005550   0.000006   0.000006   0.000001  -0.000002
    17  H    0.005805  -0.005440   0.005774  -0.000475   0.000006   0.000006
    18  H   -0.005440   0.005805  -0.000475   0.005774   0.000006   0.000006
    19  H    0.604822  -0.038057   0.005805  -0.005440   0.005550  -0.000466
    20  H   -0.038057   0.604822  -0.005440   0.005805  -0.000466   0.005550
    21  H    0.005805  -0.005440   0.605222  -0.035545   0.005826  -0.005405
    22  H   -0.005440   0.005805  -0.035545   0.605222  -0.005405   0.005826
    23  H    0.005550  -0.000466   0.005826  -0.005405   0.604816  -0.034586
    24  H   -0.000466   0.005550  -0.005405   0.005826  -0.034586   0.604816
    25  H    0.000006   0.000006   0.006048  -0.000479   0.005871  -0.005505
    26  H    0.000006   0.000006  -0.000479   0.006048  -0.005505   0.005871
    27  H   -0.000002   0.000001   0.000008   0.000003   0.005501  -0.000453
    28  H    0.000000   0.000000   0.000002   0.000002  -0.000024  -0.000024
    29  H    0.000001  -0.000002   0.000003   0.000008  -0.000453   0.005501
              25         26         27         28         29
     1  C   -0.039020  -0.039020   0.374770   0.365299   0.374770
     2  C    0.370952   0.370952  -0.033720  -0.026919  -0.033720
     3  C   -0.040776  -0.040776  -0.004770   0.004401  -0.004770
     4  C   -0.003987  -0.003987   0.000044  -0.000152   0.000044
     5  C    0.000055   0.000055   0.000001   0.000001   0.000001
     6  C    0.000002   0.000002   0.000000  -0.000000   0.000000
     7  C    0.000000   0.000000   0.000000   0.000000   0.000000
     8  C    0.000000   0.000000   0.000000  -0.000000   0.000000
     9  C    0.000000   0.000000  -0.000000   0.000000  -0.000000
    10  H   -0.000000  -0.000000   0.000000  -0.000000   0.000000
    11  H    0.000000  -0.000000   0.000000   0.000000  -0.000000
    12  H   -0.000000   0.000000  -0.000000   0.000000   0.000000
    13  H   -0.000000   0.000000   0.000000  -0.000000  -0.000000
    14  H    0.000000  -0.000000  -0.000000  -0.000000   0.000000
    15  H   -0.000000   0.000000  -0.000000   0.000000   0.000000
    16  H    0.000000  -0.000000   0.000000   0.000000  -0.000000
    17  H   -0.000003   0.000001  -0.000000   0.000000   0.000000
    18  H    0.000001  -0.000003   0.000000   0.000000  -0.000000
    19  H    0.000006   0.000006  -0.000002   0.000000   0.000001
    20  H    0.000006   0.000006   0.000001   0.000000  -0.000002
    21  H    0.006048  -0.000479   0.000008   0.000002   0.000003
    22  H   -0.000479   0.006048   0.000003   0.000002   0.000008
    23  H    0.005871  -0.005505   0.005501  -0.000024  -0.000453
    24  H   -0.005505   0.005871  -0.000453  -0.000024   0.005501
    25  H    0.602867  -0.033587   0.005200  -0.002790  -0.004501
    26  H   -0.033587   0.602867  -0.004501  -0.002790   0.005200
    27  H    0.005200  -0.004501   0.565284  -0.030616  -0.033672
    28  H   -0.002790  -0.002790  -0.030616   0.573396  -0.030616
    29  H   -0.004501   0.005200  -0.033672  -0.030616   0.565284
 Mulliken charges:
               1
     1  C   -0.481404
     2  C   -0.272408
     3  C   -0.268591
     4  C   -0.275457
     5  C   -0.277860
     6  C   -0.275457
     7  C   -0.268591
     8  C   -0.272408
     9  C   -0.481404
    10  H    0.150828
    11  H    0.156922
    12  H    0.156922
    13  H    0.139639
    14  H    0.139639
    15  H    0.138511
    16  H    0.138511
    17  H    0.138212
    18  H    0.138212
    19  H    0.139394
    20  H    0.139394
    21  H    0.138212
    22  H    0.138212
    23  H    0.138511
    24  H    0.138511
    25  H    0.139639
    26  H    0.139639
    27  H    0.156922
    28  H    0.150828
    29  H    0.156922
 Sum of Mulliken charges =  -0.00000
 Mulliken charges with hydrogens summed into heavy atoms:
               1
     1  C   -0.016733
     2  C    0.006870
     3  C    0.008432
     4  C    0.000967
     5  C    0.000928
     6  C    0.000967
     7  C    0.008432
     8  C    0.006870
     9  C   -0.016733
 Electronic spatial extent (au):  <R**2>=           3346.4764
 Charge=              0.0000 electrons
 Dipole moment (field-independent basis, Debye):
    X=             -0.0000    Y=             -0.0000    Z=              0.0358  Tot=              0.0358
 Quadrupole moment (field-independent basis, Debye-Ang):
   XX=            -59.7680   YY=            -63.3437   ZZ=            -62.1940
   XY=             -0.0000   XZ=              0.0000   YZ=             -0.0000
 Traceless Quadrupole moment (field-independent basis, Debye-Ang):
   XX=              2.0006   YY=             -1.5751   ZZ=             -0.4255
   XY=             -0.0000   XZ=              0.0000   YZ=             -0.0000
 Octapole moment (field-independent basis, Debye-Ang**2):
  XXX=             -0.0000  YYY=             -0.0000  ZZZ=              0.5827  XYY=             -0.0000
  XXY=             -0.0000  XXZ=              0.4781  XZZ=             -0.0000  YZZ=             -0.0000
  YYZ=             -1.7799  XYZ=              0.0000
 Hexadecapole moment (field-independent basis, Debye-Ang**3):
 XXXX=           -128.2382 YYYY=          -4402.5796 ZZZZ=           -220.1947 XXXY=             -0.0000
 XXXZ=              0.0000 YYYX=             -0.0000 YYYZ=             -0.0000 ZZZX=              0.0000
 ZZZY=              0.0000 XXYY=           -728.8636 XXZZ=            -51.8055 YYZZ=           -757.8418
 XXYZ=              0.0000 YYXZ=             -0.0000 ZZXY=             -0.0000
 N-N= 4.429120815888D+02 E-N=-1.704437223079D+03  KE= 3.505093338943D+02
 Symmetry A1   KE= 1.833555672693D+02
 Symmetry A2   KE= 7.821704975482D+00
 Symmetry B1   KE= 9.579330291227D+00
 Symmetry B2   KE= 1.497527313583D+02
 Calling FoFJK, ICntrl=      2527 FMM=F ISym2X=1 I1Cent= 0 IOpClX= 0 NMat=1 NMatS=1 NMatT=0.
 ***** Axes restored to original set *****
 -------------------------------------------------------------------
 Center     Atomic                   Forces (Hartrees/Bohr)
 Number     Number              X              Y              Z
 -------------------------------------------------------------------
      1        6          -0.015437205    0.000000001    0.001065378
      2        6          -0.003214095    0.000000000    0.000112004
      3        6          -0.005265935    0.000000000    0.002408239
      4        6           0.003828452   -0.000000000   -0.003088938
      5        6          -0.005201470    0.000000000    0.003431974
      6        6           0.004345959   -0.000000000   -0.002304608
      7        6          -0.004285637    0.000000000    0.003893969
      8        6          -0.001367370    0.000000000    0.002910885
      9        6          -0.007052336    0.000000000    0.013773412
     10        1           0.001123405   -0.000000000   -0.006022345
     11        1           0.002339747   -0.006338841   -0.002209957
     12        1           0.002339748    0.006338840   -0.002209957
     13        1           0.003649699   -0.013400370   -0.002070823
     14        1           0.003649700    0.013400370   -0.002070824
     15        1          -0.000499049    0.008450905   -0.000112009
     16        1          -0.000499049   -0.008450905   -0.000112009
     17        1           0.001215679   -0.007975836   -0.000994921
     18        1           0.001215680    0.007975836   -0.000994922
     19        1          -0.001023734    0.003781565    0.000675468
     20        1          -0.001023734   -0.003781565    0.000675468
     21        1           0.001392939   -0.007975836   -0.000726267
     22        1           0.001392940    0.007975836   -0.000726268
     23        1          -0.000093343    0.008450905    0.000502875
     24        1          -0.000093344   -0.008450905    0.000502875
     25        1           0.003339614   -0.013400370   -0.002540785
     26        1           0.003339615    0.013400370   -0.002540786
     27        1           0.002952207   -0.006338841   -0.001281719
     28        1           0.005978708   -0.000000000    0.001336310
     29        1           0.002952207    0.006338840   -0.001281719
 -------------------------------------------------------------------
 Cartesian Forces:  Max     0.015437205 RMS     0.005144405

 GradGradGradGradGradGradGradGradGradGradGradGradGradGradGradGradGradGrad
 Berny optimization.
 FormGI is forming the generalized inverse of G from B-inverse, IUseBI=4.
 Internal  Forces:  Max     0.013349013 RMS     0.003437754
 Search for a local minimum.
 Step number   1 out of a maximum of  164
 All quantities printed in internal units (Hartrees-Bohrs-Radians)
 Mixed Optimization -- RFO/linear search
 Second derivative matrix not updated -- first step.
 ITU=  0
     Eigenvalues ---    0.00273   0.00273   0.00273   0.00273   0.00273
     Eigenvalues ---    0.00273   0.00313   0.00313   0.03577   0.03578
     Eigenvalues ---    0.03578   0.03644   0.03644   0.03660   0.03660
     Eigenvalues ---    0.04806   0.04835   0.04835   0.04872   0.04872
     Eigenvalues ---    0.04873   0.04873   0.05345   0.05345   0.05416
     Eigenvalues ---    0.05416   0.08031   0.08031   0.08082   0.08082
     Eigenvalues ---    0.08097   0.08142   0.08142   0.11988   0.11988
     Eigenvalues ---    0.12024   0.12024   0.12039   0.12072   0.12072
     Eigenvalues ---    0.16000   0.16000   0.16000   0.16000   0.16000
     Eigenvalues ---    0.16000   0.21907   0.21979   0.21979   0.21995
     Eigenvalues ---    0.21995   0.22008   0.22008   0.28760   0.28760
     Eigenvalues ---    0.28760   0.28760   0.28763   0.28763   0.29032
     Eigenvalues ---    0.29032   0.30596   0.30596   0.30596   0.30596
     Eigenvalues ---    0.31573   0.31573   0.31573   0.31573   0.31640
     Eigenvalues ---    0.31640   0.31640   0.31640   0.32103   0.32103
     Eigenvalues ---    0.32187   0.32187   0.34367   0.34367   0.34367
     Eigenvalues ---    0.34367
 RFO step:  Lambda=-8.48169589D-03 EMin= 2.72582060D-03
 Linear search not attempted -- first point.
 Iteration  1 RMS(Cart)=  0.03567607 RMS(Int)=  0.00029597
 Iteration  2 RMS(Cart)=  0.00045710 RMS(Int)=  0.00012103
 Iteration  3 RMS(Cart)=  0.00000008 RMS(Int)=  0.00012103
 ClnCor:  largest displacement from symmetrization is 5.53D-08 for atom    20.
 Variable       Old X    -DE/DX   Delta X   Delta X   Delta X     New X
                                 (Linear)    (Quad)   (Total)
    R1        2.89936   0.00016   0.00000   0.00054   0.00054   2.89990
    R2        2.06715   0.00694   0.00000   0.01971   0.01971   2.08687
    R3        2.10656  -0.00606   0.00000  -0.01839  -0.01839   2.08817
    R4        2.06715   0.00694   0.00000   0.01971   0.01971   2.08687
    R5        2.90500   0.00200   0.00000   0.00674   0.00674   2.91174
    R6        2.13490  -0.01335   0.00000  -0.04245  -0.04245   2.09245
    R7        2.13490  -0.01335   0.00000  -0.04245  -0.04245   2.09245
    R8        2.90507   0.00170   0.00000   0.00575   0.00575   2.91082
    R9        2.11508  -0.00711   0.00000  -0.02189  -0.02189   2.09319
   R10        2.11508  -0.00711   0.00000  -0.02189  -0.02189   2.09319
   R11        2.90506   0.00139   0.00000   0.00470   0.00470   2.90976
   R12        2.11631  -0.00739   0.00000  -0.02279  -0.02279   2.09352
   R13        2.11631  -0.00739   0.00000  -0.02279  -0.02279   2.09352
   R14        2.90506   0.00139   0.00000   0.00470   0.00470   2.90976
   R15        2.10503  -0.00377   0.00000  -0.01142  -0.01142   2.09362
   R16        2.10503  -0.00377   0.00000  -0.01142  -0.01142   2.09362
   R17        2.90507   0.00170   0.00000   0.00575   0.00575   2.91082
   R18        2.11631  -0.00739   0.00000  -0.02279  -0.02279   2.09352
   R19        2.11631  -0.00739   0.00000  -0.02279  -0.02279   2.09352
   R20        2.90500   0.00200   0.00000   0.00674   0.00674   2.91174
   R21        2.11508  -0.00711   0.00000  -0.02189  -0.02189   2.09319
   R22        2.11508  -0.00711   0.00000  -0.02189  -0.02189   2.09319
   R23        2.89936   0.00016   0.00000   0.00054   0.00054   2.89990
   R24        2.13490  -0.01335   0.00000  -0.04245  -0.04245   2.09245
   R25        2.13490  -0.01335   0.00000  -0.04245  -0.04245   2.09245
   R26        2.10656  -0.00606   0.00000  -0.01839  -0.01839   2.08817
   R27        2.06715   0.00694   0.00000   0.01971   0.01971   2.08687
   R28        2.06715   0.00694   0.00000   0.01971   0.01971   2.08687
    A1        1.95253  -0.00187   0.00000  -0.01139  -0.01141   1.94112
    A2        1.93735   0.00192   0.00000   0.01197   0.01201   1.94936
    A3        1.95253  -0.00187   0.00000  -0.01139  -0.01141   1.94112
    A4        1.87555   0.00003   0.00000   0.00072   0.00076   1.87631
    A5        1.86612   0.00189   0.00000   0.01010   0.01002   1.87614
    A6        1.87555   0.00003   0.00000   0.00072   0.00076   1.87631
    A7        1.95309   0.00327   0.00000   0.02441   0.02411   1.97720
    A8        1.90583  -0.00045   0.00000   0.00283   0.00259   1.90841
    A9        1.90583  -0.00045   0.00000   0.00283   0.00259   1.90841
   A10        1.89682  -0.00027   0.00000   0.00528   0.00509   1.90192
   A11        1.89682  -0.00027   0.00000   0.00528   0.00509   1.90192
   A12        1.90493  -0.00195   0.00000  -0.04249  -0.04245   1.86248
   A13        1.95016   0.00480   0.00000   0.03215   0.03176   1.98192
   A14        1.89670  -0.00058   0.00000   0.00523   0.00500   1.90170
   A15        1.89670  -0.00058   0.00000   0.00523   0.00500   1.90170
   A16        1.90418  -0.00096   0.00000   0.00049   0.00014   1.90431
   A17        1.90418  -0.00096   0.00000   0.00049   0.00014   1.90431
   A18        1.91170  -0.00182   0.00000  -0.04528  -0.04527   1.86643
   A19        1.95849   0.00449   0.00000   0.02827   0.02802   1.98651
   A20        1.90110  -0.00077   0.00000   0.00205   0.00188   1.90298
   A21        1.90110  -0.00077   0.00000   0.00205   0.00188   1.90298
   A22        1.90348  -0.00096   0.00000  -0.00015  -0.00036   1.90312
   A23        1.90348  -0.00096   0.00000  -0.00015  -0.00036   1.90312
   A24        1.89523  -0.00120   0.00000  -0.03420  -0.03421   1.86101
   A25        1.94775   0.00677   0.00000   0.03508   0.03497   1.98272
   A26        1.91088  -0.00185   0.00000  -0.00528  -0.00539   1.90549
   A27        1.91088  -0.00185   0.00000  -0.00528  -0.00539   1.90549
   A28        1.91088  -0.00185   0.00000  -0.00528  -0.00539   1.90549
   A29        1.91088  -0.00185   0.00000  -0.00528  -0.00539   1.90549
   A30        1.87096   0.00036   0.00000  -0.01604  -0.01614   1.85481
   A31        1.95849   0.00449   0.00000   0.02827   0.02802   1.98651
   A32        1.90348  -0.00096   0.00000  -0.00015  -0.00036   1.90312
   A33        1.90348  -0.00096   0.00000  -0.00015  -0.00036   1.90312
   A34        1.90110  -0.00077   0.00000   0.00205   0.00188   1.90298
   A35        1.90110  -0.00077   0.00000   0.00205   0.00188   1.90298
   A36        1.89523  -0.00120   0.00000  -0.03420  -0.03421   1.86101
   A37        1.95016   0.00480   0.00000   0.03215   0.03176   1.98192
   A38        1.90418  -0.00096   0.00000   0.00049   0.00014   1.90431
   A39        1.90418  -0.00096   0.00000   0.00049   0.00014   1.90431
   A40        1.89670  -0.00058   0.00000   0.00523   0.00500   1.90170
   A41        1.89670  -0.00058   0.00000   0.00523   0.00500   1.90170
   A42        1.91170  -0.00182   0.00000  -0.04528  -0.04527   1.86643
   A43        1.95309   0.00327   0.00000   0.02441   0.02411   1.97720
   A44        1.89682  -0.00027   0.00000   0.00528   0.00509   1.90192
   A45        1.89682  -0.00027   0.00000   0.00528   0.00509   1.90192
   A46        1.90583  -0.00045   0.00000   0.00283   0.00259   1.90841
   A47        1.90583  -0.00045   0.00000   0.00283   0.00259   1.90841
   A48        1.90493  -0.00195   0.00000  -0.04249  -0.04245   1.86248
   A49        1.93735   0.00192   0.00000   0.01197   0.01201   1.94936
   A50        1.95253  -0.00187   0.00000  -0.01139  -0.01141   1.94112
   A51        1.95253  -0.00187   0.00000  -0.01139  -0.01141   1.94112
   A52        1.87555   0.00003   0.00000   0.00072   0.00076   1.87631
   A53        1.87555   0.00003   0.00000   0.00072   0.00076   1.87631
   A54        1.86612   0.00189   0.00000   0.01010   0.01002   1.87614
    D1        1.04667  -0.00009   0.00000  -0.00143  -0.00140   1.04527
    D2       -3.13574   0.00136   0.00000   0.02268   0.02274  -3.11300
    D3       -1.05410  -0.00154   0.00000  -0.02555  -0.02554  -1.07964
    D4        3.14159   0.00000   0.00000   0.00000   0.00000   3.14159
    D5       -1.04082   0.00145   0.00000   0.02411   0.02414  -1.01668
    D6        1.04082  -0.00145   0.00000  -0.02411  -0.02414   1.01668
    D7       -1.04667   0.00009   0.00000   0.00143   0.00140  -1.04527
    D8        1.05410   0.00154   0.00000   0.02555   0.02554   1.07964
    D9        3.13574  -0.00136   0.00000  -0.02268  -0.02274   3.11300
   D10       -3.14159  -0.00000   0.00000  -0.00000   0.00000  -3.14159
   D11       -1.03957   0.00143   0.00000   0.02420   0.02429  -1.01528
   D12        1.03957  -0.00143   0.00000  -0.02420  -0.02429   1.01528
   D13        1.03558  -0.00132   0.00000  -0.02248  -0.02253   1.01305
   D14        3.13760   0.00011   0.00000   0.00173   0.00175   3.13936
   D15       -1.06644  -0.00275   0.00000  -0.04668  -0.04682  -1.11326
   D16       -1.03558   0.00132   0.00000   0.02248   0.02253  -1.01305
   D17        1.06644   0.00275   0.00000   0.04668   0.04682   1.11326
   D18       -3.13760  -0.00011   0.00000  -0.00173  -0.00175  -3.13936
   D19        3.14159   0.00000   0.00000   0.00000  -0.00000   3.14159
   D20       -1.03220   0.00116   0.00000   0.01939   0.01944  -1.01276
   D21        1.03220  -0.00116   0.00000  -0.01939  -0.01944   1.01276
   D22        1.04395  -0.00168   0.00000  -0.02720  -0.02721   1.01674
   D23       -3.12985  -0.00051   0.00000  -0.00780  -0.00777  -3.13762
   D24       -1.06545  -0.00284   0.00000  -0.04659  -0.04665  -1.11209
   D25       -1.04395   0.00168   0.00000   0.02720   0.02721  -1.01674
   D26        1.06545   0.00284   0.00000   0.04659   0.04665   1.11209
   D27        3.12985   0.00051   0.00000   0.00780   0.00777   3.13762
   D28        3.14159  -0.00000   0.00000  -0.00000   0.00000   3.14159
   D29       -1.02321   0.00086   0.00000   0.01276   0.01276  -1.01045
   D30        1.02321  -0.00086   0.00000  -0.01276  -0.01276   1.01045
   D31        1.03357  -0.00128   0.00000  -0.02072  -0.02073   1.01284
   D32       -3.13123  -0.00042   0.00000  -0.00796  -0.00798  -3.13921
   D33       -1.08481  -0.00213   0.00000  -0.03348  -0.03349  -1.11831
   D34       -1.03357   0.00128   0.00000   0.02072   0.02073  -1.01284
   D35        1.08481   0.00213   0.00000   0.03348   0.03349   1.11831
   D36        3.13123   0.00042   0.00000   0.00796   0.00798   3.13921
   D37        3.14159   0.00000   0.00000   0.00000   0.00000  -3.14159
   D38       -1.03357   0.00128   0.00000   0.02072   0.02073  -1.01284
   D39        1.03357  -0.00128   0.00000  -0.02072  -0.02073   1.01284
   D40        1.02321  -0.00086   0.00000  -0.01276  -0.01276   1.01045
   D41        3.13123   0.00042   0.00000   0.00796   0.00798   3.13921
   D42       -1.08481  -0.00213   0.00000  -0.03348  -0.03349  -1.11831
   D43       -1.02321   0.00086   0.00000   0.01276   0.01276  -1.01045
   D44        1.08481   0.00213   0.00000   0.03348   0.03349   1.11831
   D45       -3.13123  -0.00042   0.00000  -0.00796  -0.00798  -3.13921
   D46        3.14159  -0.00000   0.00000  -0.00000   0.00000   3.14159
   D47       -1.04395   0.00168   0.00000   0.02720   0.02721  -1.01674
   D48        1.04395  -0.00168   0.00000  -0.02720  -0.02721   1.01674
   D49        1.03220  -0.00116   0.00000  -0.01939  -0.01944   1.01276
   D50        3.12985   0.00051   0.00000   0.00780   0.00777   3.13762
   D51       -1.06545  -0.00284   0.00000  -0.04659  -0.04665  -1.11209
   D52       -1.03220   0.00116   0.00000   0.01939   0.01944  -1.01276
   D53        1.06545   0.00284   0.00000   0.04659   0.04665   1.11209
   D54       -3.12985  -0.00051   0.00000  -0.00780  -0.00777  -3.13762
   D55        3.14159  -0.00000   0.00000  -0.00000   0.00000   3.14159
   D56       -1.03558   0.00132   0.00000   0.02248   0.02253  -1.01305
   D57        1.03558  -0.00132   0.00000  -0.02248  -0.02253   1.01305
   D58        1.03957  -0.00143   0.00000  -0.02420  -0.02429   1.01528
   D59       -3.13760  -0.00011   0.00000  -0.00173  -0.00175  -3.13936
   D60       -1.06644  -0.00275   0.00000  -0.04668  -0.04682  -1.11326
   D61       -1.03957   0.00143   0.00000   0.02420   0.02429  -1.01528
   D62        1.06644   0.00275   0.00000   0.04668   0.04682   1.11326
   D63        3.13760   0.00011   0.00000   0.00173   0.00175   3.13936
   D64       -3.14159  -0.00000   0.00000  -0.00000  -0.00000   3.14159
   D65       -1.04667   0.00009   0.00000   0.00143   0.00140  -1.04527
   D66        1.04667  -0.00009   0.00000  -0.00143  -0.00140   1.04527
   D67        1.04082  -0.00145   0.00000  -0.02411  -0.02414   1.01668
   D68        3.13574  -0.00136   0.00000  -0.02268  -0.02274   3.11300
   D69       -1.05410  -0.00154   0.00000  -0.02555  -0.02554  -1.07964
   D70       -1.04082   0.00145   0.00000   0.02411   0.02414  -1.01668
   D71        1.05410   0.00154   0.00000   0.02555   0.02554   1.07964
   D72       -3.13574   0.00136   0.00000   0.02268   0.02274  -3.11300
         Item               Value     Threshold  Converged?
 Maximum Force            0.013349     0.000450     NO 
 RMS     Force            0.003438     0.000300     NO 
 Maximum Displacement     0.101457     0.001800     NO 
 RMS     Displacement     0.035499     0.001200     NO 
 Predicted change in Energy=-4.562889D-03
 GradGradGradGradGradGradGradGradGradGradGradGradGradGradGradGradGradGrad

                          Input orientation:                          
 ---------------------------------------------------------------------
 Center     Atomic      Atomic             Coordinates (Angstroms)
 Number     Number       Type             X           Y           Z
 ---------------------------------------------------------------------
      1          6           0       -0.022656    0.000000   -0.047784
      2          6           0       -0.018223    0.000000    1.486770
      3          6           0        1.398854   -0.000000    2.091787
      4          6           0        1.410562    0.000000    3.632080
      5          6           0        2.823875   -0.000000    4.243190
      6          6           0        2.829728   -0.000000    5.782955
      7          6           0        4.241223   -0.000000    6.399656
      8          6           0        4.239993   -0.000000    7.940484
      9          6           0        5.649073   -0.000000    8.548239
     10          1           0        5.617429   -0.000000    9.652798
     11          1           0        6.220601   -0.890547    8.232312
     12          1           0        6.220601    0.890547    8.232312
     13          1           0        3.685487    0.888433    8.300019
     14          1           0        3.685487   -0.888433    8.300019
     15          1           0        4.793981   -0.890053    6.040217
     16          1           0        4.793981    0.890053    6.040217
     17          1           0        2.276640    0.888407    6.146479
     18          1           0        2.276640   -0.888407    6.146479
     19          1           0        3.378637   -0.886390    3.877154
     20          1           0        3.378637    0.886390    3.877154
     21          1           0        0.858769    0.888407    3.997565
     22          1           0        0.858769   -0.888407    3.997565
     23          1           0        1.946762   -0.890053    1.724997
     24          1           0        1.946762    0.890053    1.724997
     25          1           0       -0.566907    0.888433    1.855129
     26          1           0       -0.566907   -0.888433    1.855129
     27          1           0        0.492632   -0.890547   -0.448947
     28          1           0       -1.050604    0.000000   -0.453215
     29          1           0        0.492632    0.890547   -0.448947
 ---------------------------------------------------------------------
                    Distance matrix (angstroms):
                    1          2          3          4          5
     1  C    0.000000
     2  C    1.534560   0.000000
     3  C    2.568745   1.540829   0.000000
     4  C    3.949115   2.577553   1.540337   0.000000
     5  C    5.149291   3.959214   2.580546   1.539776   0.000000
     6  C    6.491041   5.154419   3.958803   2.576878   1.539776
     7  C    7.729821   6.502256   5.161085   3.958803   2.580546
     8  C    9.054424   7.731936   6.502256   5.154419   3.959214
     9  C   10.298550   9.054424   7.729821   6.491041   5.149291
    10  H   11.221045   9.921925   8.658249   7.344848   6.088334
    11  H   10.408233   9.231378   7.858013   6.715035   5.314501
    12  H   10.408233   9.231378   7.858013   6.715035   5.314501
    13  H    9.177443   7.805585   6.675339   5.268231   4.241409
    14  H    9.177443   7.805585   6.675339   5.268231   4.241409
    15  H    7.813830   6.684563   5.282914   4.247216   2.811195
    16  H    7.813830   6.684563   5.282914   4.247216   2.811195
    17  H    6.666702   5.269588   4.242676   2.803848   2.170540
    18  H    6.666702   5.269588   4.242676   2.803848   2.170540
    19  H    5.268739   4.247150   2.809406   2.172342   1.107895
    20  H    5.268739   4.247150   2.809406   2.172342   1.107895
    21  H    4.234504   2.804011   2.170933   1.107846   2.170540
    22  H    4.234504   2.804011   2.170933   1.107846   2.170540
    23  H    2.795273   2.170280   1.107670   2.171789   2.811195
    24  H    2.795273   2.170280   1.107670   2.171789   2.811195
    25  H    2.169470   1.107274   2.170147   2.803079   4.241409
    26  H    2.169470   1.107274   2.170147   2.803079   4.241409
    27  H    1.104322   2.191129   2.840711   4.276733   5.314501
    28  H    1.105012   2.197578   3.532262   4.769378   6.088334
    29  H    1.104322   2.191129   2.840711   4.276733   5.314501
                    6          7          8          9         10
     6  C    0.000000
     7  C    1.540337   0.000000
     8  C    2.577553   1.540829   0.000000
     9  C    3.949115   2.568745   1.534560   0.000000
    10  H    4.769378   3.532262   2.197578   1.105012   0.000000
    11  H    4.276733   2.840711   2.191129   1.104322   1.781760
    12  H    4.276733   2.840711   2.191129   1.104322   1.781760
    13  H    2.803079   2.170147   1.107274   2.169470   2.520263
    14  H    2.803079   2.170147   1.107274   2.169470   2.520263
    15  H    2.171789   1.107670   2.170280   2.795273   3.810643
    16  H    2.171789   1.107670   2.170280   2.795273   3.810643
    17  H    1.107846   2.170933   2.804011   4.234504   4.923862
    18  H    1.107846   2.170933   2.804011   4.234504   4.923862
    19  H    2.172342   2.809406   4.247150   5.268739   6.257472
    20  H    2.172342   2.809406   4.247150   5.268739   6.257472
    21  H    2.803848   4.242676   5.269588   6.666702   7.444177
    22  H    2.803848   4.242676   5.269588   6.666702   7.444177
    23  H    4.247216   5.282914   6.684563   7.813830   8.781573
    24  H    4.247216   5.282914   6.684563   7.813830   8.781573
    25  H    5.268231   6.675339   7.805585   9.177443   9.991946
    26  H    5.268231   6.675339   7.805585   9.177443   9.991946
    27  H    6.715035   7.858013   9.231378  10.408233  11.362300
    28  H    7.344848   8.658249   9.921925  11.221045  12.107608
    29  H    6.715035   7.858013   9.231378  10.408233  11.362300
                   11         12         13         14         15
    11  H    0.000000
    12  H    1.781094   0.000000
    13  H    3.097767   2.536019   0.000000
    14  H    2.536019   3.097767   1.776867   0.000000
    15  H    2.615440   3.164026   3.081960   2.517036   0.000000
    16  H    3.164026   2.615440   2.517036   3.081960   1.780106
    17  H    4.803145   4.461561   2.573439   3.127259   3.084026
    18  H    4.461561   4.803145   3.127259   2.573439   2.519583
    19  H    5.200402   5.495605   4.775552   4.433498   2.584967
    20  H    5.495605   5.200402   4.433498   4.775552   3.136526
[...]
 2548445,0.00869788,-0.10260899,0.09395572,0.03912577,-0.00104924,0.000
 40159,0.00052405,0.00067276,-0.00083261,-0.00040351,0.00010081,-0.0001
 3472,-0.00009991,-0.00001409,-0.00000468,0.00003566,0.00001680,0.00000
 909,-0.00000296,-0.00000545,0.00000100,0.00000894,0.00000395,0.0000004
 2,0.00000440,0.00000262,-0.00000159,-0.00000188,0.00000012,-0.00000026
 ,-0.00000082,0.00000004,-0.00000293,0.00000303,-0.00000297,-0.00000119
 ,0.00000342,0.00000115,0.00000532,0.00000053,0.00000142,-0.00000113,-0
 .00000185,-0.00010694,0.00002788,-0.00008056,-0.00002588,-0.00000255,0
 .00003645,0.00035539,0.00021549,0.00015205,0.00003746,-0.00006975,-0.0
 0000557,0.00043757,-0.00005249,-0.00010734,-0.00011177,0.00019204,0.00
 008131,0.11480372,-0.00029445,0.00019676,-0.00012385,-0.00028658,-0.00
 055284,-0.00010012,0.09382942,-0.20348986,-0.06216663,-0.00014144,-0.0
 0044546,0.00020234,0.00017465,0.00008121,0.00030749,-0.00034273,0.0003
 0150,0.00002399,0.00003447,-0.00003156,-0.00008484,-0.00003306,0.00000
 302,0.00000298,0.00000882,-0.00000469,-0.00001343,-0.00000640,0.000000
 27,-0.00000350,-0.00000369,0.00000618,0.00000002,0.00000030,-0.0000022
 2,-0.00000026,-0.00000321,0.00000382,0.00000682,0.00000136,-0.00000081
 ,0.00000050,-0.00001865,0.00002566,-0.00001377,-0.00000106,-0.00000737
 ,-0.00000168,0.00002793,-0.00000654,0.00020348,0.00000268,-0.00001773,
 0.00002009,-0.00057059,0.00023309,-0.00047840,0.00008394,-0.00004980,-
 0.00004022,-0.00005637,0.00169157,0.00015345,-0.00018867,0.00092523,-0
 .00038253,-0.10525138,0.21906872,-0.00037678,0.00112568,0.00122999,-0.
 00636908,0.01029623,0.00274648,0.03914291,-0.06223949,-0.06959195,0.01
 551011,-0.02734114,-0.01331994,0.00177526,-0.00094543,0.00133870,-0.00
 003771,0.00023941,-0.00009859,-0.00004868,0.00008277,0.00003930,0.0000
 0284,-0.00000071,0.00001613,0.00000550,-0.00000321,-0.00000344,-0.0000
 0224,-0.00000059,-0.00000328,-0.00000461,0.00000354,0.00000039,-0.0000
 0003,-0.00000026,0.00000012,0.00000246,0.00000751,0.00001015,0.0000035
 7,-0.00000100,-0.00000314,-0.00007488,0.00002257,-0.00003066,-0.000008
 16,-0.00000163,-0.00000286,-0.00008086,0.00020346,0.00030508,0.0000368
 8,-0.00001982,-0.00000384,-0.00104892,0.00071401,-0.00002681,-0.000135
 23,0.00006110,-0.00002186,-0.00009469,0.00015033,-0.00649491,0.0000772
 7,0.00038431,0.00139836,-0.04115586,0.06967401,0.07999560,0.00101501,-
 0.00031240,0.00160020,-0.01739125,-0.02548444,0.00869788,-0.10260901,-
 0.09395573,0.03912578,-0.00104924,-0.00040159,0.00052405,0.00067276,0.
 00083261,-0.00040351,0.00010081,0.00013472,-0.00009991,-0.00001409,0.0
 0000468,0.00003566,0.00001680,-0.00000909,-0.00000296,-0.00000545,-0.0
 0000100,0.00000894,0.00000395,-0.00000042,0.00000440,0.00000012,0.0000
 0026,-0.00000082,0.00000262,0.00000159,-0.00000188,-0.00000297,0.00000
 119,0.00000342,0.00000004,0.00000293,0.00000303,0.00000142,0.00000113,
 -0.00000185,0.00000115,-0.00000532,0.00000053,-0.00002588,0.00000255,0
 .00003645,-0.00010694,-0.00002788,-0.00008056,0.00003746,0.00006975,-0
 .00000557,0.00035539,-0.00021549,0.00015205,-0.00011177,-0.00019204,0.
 00008131,0.00043757,0.00005249,-0.00010734,0.00758811,0.01277065,-0.00
 541422,0.11480373,0.00029445,0.00019676,0.00012385,0.00028658,-0.00055
 284,0.00010012,-0.09382943,-0.20348985,0.06216663,0.00014144,-0.000445
 46,-0.00020234,-0.00017465,0.00008121,-0.00030749,0.00034273,0.0003015
 0,-0.00002399,-0.00003447,-0.00003156,0.00008484,0.00003306,0.00000302
 ,-0.00000298,-0.00000882,-0.00000469,0.00001343,0.00000640,0.00000027,
 0.00000350,-0.00000030,-0.00000222,0.00000026,0.00000369,0.00000618,-0
 .00000002,-0.00000136,-0.00000081,-0.00000050,0.00000321,0.00000382,-0
 .00000682,0.00000106,-0.00000737,0.00000168,0.00001865,0.00002566,0.00
 001377,-0.00000268,-0.00001773,-0.00002009,-0.00002793,-0.00000654,-0.
 00020348,-0.00008394,-0.00004980,0.00004022,0.00057059,0.00023309,0.00
 047840,0.00018867,0.00092523,0.00038253,0.00005638,0.00169157,-0.00015
 345,-0.01277065,-0.02090634,0.00840612,0.10525139,0.21906870,-0.000376
 78,-0.00112568,0.00122999,-0.00636908,-0.01029623,0.00274649,0.0391429
 2,0.06223949,-0.06959195,0.01551011,0.02734114,-0.01331994,0.00177526,
 0.00094543,0.00133870,-0.00003771,-0.00023941,-0.00009859,-0.00004868,
 -0.00008277,0.00003930,0.00000284,0.00000071,0.00001613,0.00000550,0.0
 0000321,-0.00000344,-0.00000224,0.00000059,-0.00000328,-0.00000003,0.0
 0000026,0.00000012,-0.00000461,-0.00000354,0.00000039,0.00000357,0.000
 00100,-0.00000314,0.00000246,-0.00000751,0.00001015,-0.00000816,0.0000
 0163,-0.00000286,-0.00007488,-0.00002257,-0.00003066,0.00003688,0.0000
 1982,-0.00000384,-0.00008086,-0.00020346,0.00030508,-0.00013523,-0.000
 06110,-0.00002186,-0.00104892,-0.00071401,-0.00002681,0.00007727,-0.00
 038431,0.00139836,-0.00009469,-0.00015033,-0.00649491,-0.00541422,-0.0
 0840611,0.00295794,-0.04115587,-0.06967401,0.07999560,-0.00017831,-0.0
 0053256,-0.00008702,-0.10388430,0.09517145,0.03993967,-0.01759235,0.02
 560225,0.00860124,0.00074957,0.00053967,0.00182971,-0.00001775,-0.0002
 8135,-0.00008926,0.00003780,-0.00007968,-0.00002991,0.00001568,0.00000
 442,0.00000188,-0.00001029,0.00000503,0.00000622,0.00000182,0.00000167
 ,-0.00000522,-0.00000228,0.00000016,-0.00000435,0.00000159,-0.00000233
 ,0.00000115,-0.00000173,-0.00000018,0.00000174,0.00000273,-0.00000389,
 -0.00000439,-0.00000013,-0.00000021,0.00000007,0.00000660,-0.00000753,
 0.00000583,-0.00000564,-0.00000008,0.00000228,0.00000069,-0.00001784,-
 0.00007500,0.00000143,0.00000094,-0.00000812,0.00030374,-0.00017630,0.
 00009544,-0.00003362,0.00001748,0.00003336,0.00036442,-0.00057977,-0.0
 0106196,0.00003992,-0.00008402,-0.00013515,-0.00542474,-0.00019340,-0.
 00268741,0.00110732,-0.00028838,0.00059758,0.11565644,-0.00074294,0.00
 038687,0.00057661,0.09511634,-0.20525561,-0.06314589,-0.00012235,-0.00
 049737,0.00010642,-0.00021829,0.00008137,-0.00027358,-0.00015787,0.000
 30654,0.00030966,0.00008932,-0.00003129,0.00000352,-0.00001363,0.00000
 297,0.00002996,0.00001690,-0.00000622,-0.00000574,-0.00000140,0.000000
 01,0.00000680,0.00000288,-0.00000042,0.00000379,-0.00000256,0.00000218
 ,-0.00000066,0.00000022,-0.00000045,-0.00000134,-0.00000188,0.00000670
 ,0.00000343,0.00000044,-0.00000225,-0.00000004,-0.00000806,0.00000382,
 -0.00000026,-0.00000045,-0.00000081,-0.00000149,0.00000593,0.00002567,
 0.00002268,0.00000136,-0.00000774,0.00000187,-0.00017997,-0.00000657,-
 0.00010820,-0.00001963,-0.00001902,-0.00001097,0.00021927,0.00023866,0
 .00072059,0.00007234,-0.00005519,-0.00005586,-0.00016447,0.00172869,0.
 00006086,0.00025505,0.00093358,0.00031738,-0.10611850,0.22056172,0.015
 91046,-0.02708309,-0.01298208,0.03969934,-0.06291055,-0.06989011,-0.00
 634901,0.01031532,0.00286493,-0.00039140,0.00113867,0.00127271,-0.0001
 4935,0.00003268,0.00002048,0.00005715,-0.00002847,-0.00001017,-0.00000
 255,-0.00000829,0.00001802,0.00000764,-0.00000028,-0.00000193,-0.00000
 193,-0.00000047,0.00000333,0.00000156,-0.00000010,0.00000160,0.0000000
 3,0.00000029,-0.00000018,0.00000080,0.00000040,-0.00000045,-0.00000136
 ,0.00000038,0.00000026,-0.00000012,0.00000038,-0.00000015,0.00000527,0
 .00000027,0.00000359,0.00000243,0.00000144,-0.00000047,0.00000031,-0.0
 0001301,-0.00002989,-0.00000181,0.00000164,-0.00000314,0.00009129,-0.0
 0010413,-0.00010292,0.00003428,0.00001016,0.00000423,0.00015510,-0.000
 47985,-0.00002560,-0.00000460,0.00004065,-0.00002354,-0.00257984,0.000
 01690,-0.00068014,0.00061170,-0.00031643,0.00015880,-0.04136228,0.0702
 6789,0.08045733,-0.00017831,0.00053256,-0.00008702,-0.10388431,-0.0951
 7146,0.03993968,-0.01759235,-0.02560225,0.00860124,0.00074957,-0.00053
 967,0.00182971,-0.00001775,0.00028135,-0.00008926,0.00003780,0.0000796
 8,-0.00002991,0.00001568,-0.00000442,0.00000188,-0.00001029,-0.0000050
 3,0.00000622,0.00000182,-0.00000167,-0.00000522,-0.00000228,-0.0000001
 6,-0.00000435,-0.00000173,0.00000018,0.00000174,0.00000159,0.00000233,
 0.00000115,-0.00000013,0.00000021,0.00000007,0.00000273,0.00000389,-0.
 00000439,-0.00000564,0.00000008,0.00000228,0.00000660,0.00000753,0.000
 00583,0.00000143,-0.00000094,-0.00000812,0.00000069,0.00001784,-0.0000
 7500,-0.00003362,-0.00001748,0.00003336,0.00030374,0.00017630,0.000095
 44,0.00003992,0.00008402,-0.00013515,0.00036442,0.00057977,-0.00106196
 ,0.00110732,0.00028838,0.00059758,-0.00542474,0.00019340,-0.00268741,0
 .00767048,0.01275779,-0.00553085,0.11565645,0.00074294,0.00038687,-0.0
 0057661,-0.09511634,-0.20525560,0.06314589,0.00012236,-0.00049737,-0.0
 0010642,0.00021828,0.00008138,0.00027358,0.00015787,0.00030654,-0.0003
 0966,-0.00008932,-0.00003129,-0.00000352,0.00001363,0.00000297,-0.0000
 2996,-0.00001690,-0.00000622,0.00000574,0.00000140,0.00000001,-0.00000
 680,-0.00000288,-0.00000042,-0.00000379,-0.00000022,-0.00000045,0.0000
 0134,0.00000256,0.00000218,0.00000066,-0.00000044,-0.00000225,0.000000
 04,0.00000188,0.00000670,-0.00000343,0.00000045,-0.00000081,0.00000149
 ,0.00000806,0.00000382,0.00000026,-0.00000136,-0.00000774,-0.00000187,
 -0.00000593,0.00002567,-0.00002268,0.00001963,-0.00001902,0.00001097,0
 .00017997,-0.00000657,0.00010820,-0.00007234,-0.00005519,0.00005586,-0
 .00021927,0.00023866,-0.00072059,-0.00025505,0.00093358,-0.00031738,0.
 00016447,0.00172869,-0.00006086,-0.01275779,-0.02096871,0.00840011,0.1
 0611851,0.22056170,0.01591046,0.02708309,-0.01298208,0.03969935,0.0629
 1055,-0.06989012,-0.00634901,-0.01031532,0.00286493,-0.00039140,-0.001
 13867,0.00127271,-0.00014935,-0.00003268,0.00002048,0.00005715,0.00002
 847,-0.00001017,-0.00000255,0.00000829,0.00001802,0.00000764,0.0000002
 8,-0.00000193,-0.00000193,0.00000047,0.00000333,0.00000156,0.00000010,
 0.00000160,0.00000080,-0.00000040,-0.00000045,0.00000003,-0.00000029,-
 0.00000018,-0.00000012,-0.00000038,-0.00000015,-0.00000136,-0.00000038
 ,0.00000026,0.00000243,-0.00000144,-0.00000047,0.00000527,-0.00000027,
 0.00000359,-0.00000181,-0.00000164,-0.00000314,0.00000031,0.00001301,-
 0.00002989,0.00003428,-0.00001016,0.00000423,0.00009129,0.00010413,-0.
 00010292,-0.00000460,-0.00004065,-0.00002354,0.00015510,0.00047985,-0.
 00002560,0.00061170,0.00031643,0.00015880,-0.00257984,-0.00001690,-0.0
 0068014,-0.00553085,-0.00840011,0.00303058,-0.04136229,-0.07026790,0.0
 8045733,-0.10199557,0.09601624,0.04064725,-0.00116065,-0.00005609,0.00
 048283,0.00081899,-0.00108262,-0.00041489,0.00007934,-0.00008296,-0.00
 014941,-0.00003156,-0.00000683,0.00004666,0.00003155,0.00001191,-0.000
 00978,-0.00001679,0.00000117,0.00001771,0.00001368,0.00000182,-0.00000
 739,-0.00000518,0.00000027,0.00000749,0.00000395,0.00000024,0.00000597
 ,0.00000168,-0.00000106,-0.00000189,0.00000042,0.00000014,-0.00000146,
 -0.00000033,-0.00000040,0.00000033,-0.00000157,-0.00000131,0.00000181,
 0.00000308,-0.00000148,-0.00000168,0.00000043,-0.00000036,-0.00000069,
 -0.00000142,-0.00000116,0.00000531,-0.00000396,-0.00000359,0.00000550,
 -0.00000217,0.00000887,-0.00000238,0.00000132,-0.00000159,-0.00000328,
 -0.00011234,0.00003414,-0.00005343,-0.00002496,-0.00001209,0.00004296,
 0.00035884,0.00027146,0.00020947,0.00001867,-0.00004544,-0.00001513,0.
 00090147,-0.00040689,0.00002919,-0.00016077,0.00008965,0.00020686,0.10
 692556,0.09600119,-0.21212893,-0.07021941,-0.00059804,0.00052980,0.000
 15126,0.00006439,0.00015037,0.00035061,-0.00030615,0.00027069,0.000046
 50,0.00003156,-0.00002880,-0.00007420,-0.00003108,0.00000209,0.0000023
 0,0.00001264,-0.00000540,-0.00001419,-0.00000744,-0.00000079,0.0000012
 1,0.00000333,-0.00000095,-0.00000365,-0.00000208,-0.00000011,-0.000001
 76,-0.00000173,0.00000239,0.00000041,-0.00000020,-0.00000109,0.0000000
 7,-0.00000119,0.00000218,0.00000203,0.00000044,-0.00000045,0.,-0.00000
 388,0.00000618,0.00000007,-0.00000013,-0.00000222,-0.00000034,-0.00000
 257,0.00000324,0.00000649,0.00000115,-0.00000038,0.00000101,-0.0000155
 0,0.00002319,-0.00001225,-0.00000151,-0.00000810,-0.00000248,0.0000298
 6,-0.00001122,0.00018489,0.00000052,-0.00001710,0.00002174,-0.00052840
 ,0.00014814,-0.00050185,0.00006756,-0.00008133,-0.00005273,-0.00006959
 ,0.00166478,0.00034074,-0.00023240,0.00084750,-0.00038847,-0.10622497,
 0.22811651,0.04070824,-0.07028126,-0.07431089,0.01566855,-0.02774051,-
 0.01267961,0.00176266,-0.00094716,0.00153612,-0.00002002,0.00023704,-0
 .00009161,-0.00005430,0.00009149,0.00005466,0.00000949,0.00000029,0.00
 001370,0.00000430,-0.00000450,-0.00000171,-0.00000085,-0.00000234,-0.0
 0000045,0.00000154,-0.00000057,-0.00000060,-0.00000058,-0.00000012,-0.
 00000028,-0.00000171,0.00000143,0.00000015,0.00000005,-0.00000016,-0.0
 0000018,-0.00000079,0.00000261,0.00000175,0.00000087,-0.00000032,-0.00
 000062,-0.00000442,0.00000339,-0.00000007,0.00000010,0.00000017,-0.000
 00018,0.00000270,0.00000748,0.00001041,0.00000319,-0.00000122,-0.00000
 280,-0.00007558,0.00002068,-0.00003204,-0.00000762,-0.00000147,-0.0000
 0325,-0.00007359,0.00020008,0.00031505,0.00003694,-0.00002171,-0.00000
 194,-0.00105289,0.00070789,-0.00000456,-0.00015352,0.00006767,-0.00001
 980,-0.00035625,0.00035736,-0.00668192,0.00010079,0.00033281,0.0013951
 2,-0.04558414,0.07797576,0.08374276,-0.26872827,0.,-0.08525346,0.00214
 985,0.,0.00181372,0.00109433,0.,-0.00057233,-0.00001932,0.,0.00042753,
 0.00011304,0.,-0.00007195,-0.00007989,0.,0.00003693,0.00003544,0.,-0.0
 0003282,-0.00002848,0.,0.00001771,0.00001048,0.,-0.00001549,-0.0000081
 8,0.,-0.00001287,-0.00000157,0.00000080,0.00000361,-0.00000157,-0.0000
 0080,0.00000361,0.00000201,-0.00000235,-0.00000251,0.00000201,0.000002
 35,-0.00000251,-0.00000294,0.00000070,0.00000145,-0.00000294,-0.000000
 70,0.00000145,0.00000488,-0.00000418,-0.00000260,0.00000488,0.00000418
 ,-0.00000260,-0.00000944,0.00000051,0.00000724,-0.00000944,-0.00000051
 ,0.00000724,0.00000913,-0.00002539,-0.00010027,0.00000913,0.00002539,-
 0.00010027,0.00021955,-0.00014779,0.00019063,0.00021955,0.00014779,0.0
 0019063,0.00045021,-0.00028929,-0.00043832,0.00045021,0.00028929,-0.00
 043832,-0.01297390,-0.00124479,-0.00467840,0.29006512,0.,-0.04560303,0
 .,0.,-0.00170550,0.,0.,0.00022088,0.,0.,0.00060458,0.,0.,-0.00000053,0
 .,0.,0.00000056,0.,0.,-0.00000591,0.,0.,0.00000157,0.,0.,-0.00000020,0
 .,0.,0.00000029,0.,0.00000021,-0.00000011,-0.00000018,-0.00000021,-0.0
 0000011,0.00000018,0.00000016,-0.00000042,-0.00000010,-0.00000016,-0.0
 0000042,0.00000010,0.00000071,0.00000027,-0.00000015,-0.00000071,0.000
 00027,0.00000015,0.00000048,-0.00000232,-0.00000237,-0.00000048,-0.000
 00232,0.00000237,0.00000141,0.00000306,-0.00000541,-0.00000141,0.00000
 306,0.00000541,0.00000137,-0.00001882,0.00009019,-0.00000137,-0.000018
 82,-0.00009019,-0.00046402,0.00024913,-0.00011209,0.00046402,0.0002491
 3,0.00011209,-0.00038209,0.00006056,-0.00001174,0.00038209,0.00006056,
 0.00001174,0.02455189,0.00046654,0.01017008,0.,0.04497150,-0.08503234,
 0.,-0.07668497,-0.03159107,0.,-0.01075109,0.00282172,0.,-0.00665459,-0
 .00234144,0.,0.00011826,0.00039076,0.,-0.00081683,-0.00037004,0.,0.000
 04413,0.00009478,0.,-0.00014358,-0.00008150,0.,0.00002667,0.00002151,0
 .,-0.00003740,-0.00001821,0.,-0.00002147,-0.00000294,0.00000260,0.0000
 0524,-0.00000294,-0.00000260,0.00000524,0.00000339,-0.00000414,-0.0000
 0269,0.00000339,0.00000414,-0.00000269,-0.00000519,0.00000726,0.000003
 61,-0.00000519,-0.00000726,0.00000361,0.00000955,-0.00001607,-0.000003
 14,0.00000955,0.00001607,-0.00000314,-0.00000017,0.00003421,0.00002211
 ,-0.00000017,-0.00003421,0.00002211,0.00003110,-0.00010455,0.00001418,
 0.00003110,0.00010455,0.00001418,0.00017533,0.00024660,0.00010877,0.00
 017533,-0.00024660,0.00010877,0.00022021,-0.00045190,0.00120173,0.0002
 2021,0.00045190,0.00120173,0.01077094,0.00101138,0.00346746,0.09370139
 ,0.,0.08528634,-0.10199559,-0.09601625,0.04064725,-0.00116065,0.000056
 09,0.00048283,0.00081899,0.00108262,-0.00041489,0.00007934,0.00008296,
 -0.00014941,-0.00003156,0.00000683,0.00004666,0.00003155,-0.00001191,-
 0.00000978,-0.00001679,-0.00000117,0.00001771,0.00001368,-0.00000182,-
 0.00000739,-0.00000518,-0.00000027,0.00000749,0.00000395,-0.00000024,0
 .00000597,0.00000042,-0.00000014,-0.00000146,0.00000168,0.00000106,-0.
 00000189,-0.00000157,0.00000131,0.00000181,-0.00000033,0.00000040,0.00
 000033,0.00000043,0.00000036,-0.00000069,0.00000308,0.00000148,-0.0000
 0168,-0.00000396,0.00000359,0.00000550,-0.00000142,0.00000116,0.000005
 31,0.00000132,0.00000159,-0.00000328,-0.00000217,-0.00000887,-0.000002
 38,-0.00002496,0.00001209,0.00004296,-0.00011234,-0.00003414,-0.000053
 43,0.00001867,0.00004544,-0.00001513,0.00035884,-0.00027146,0.00020947
 ,-0.00016077,-0.00008965,0.00020686,0.00090147,0.00040689,0.00002919,0
 .00733219,0.01305900,-0.00623476,-0.01297390,-0.02455189,0.01077094,0.
 10692557,-0.09600119,-0.21212892,0.07021941,0.00059805,0.00052980,-0.0
 0015126,-0.00006439,0.00015037,-0.00035061,0.00030615,0.00027069,-0.00
 004650,-0.00003156,-0.00002880,0.00007420,0.00003108,0.00000209,-0.000
 00230,-0.00001264,-0.00000540,0.00001419,0.00000744,-0.00000079,-0.000
 00121,-0.00000333,-0.00000095,0.00000365,0.00000208,-0.00000011,0.0000
 0176,0.00000020,-0.00000109,-0.00000007,0.00000173,0.00000239,-0.00000
 041,-0.00000044,-0.00000045,0.,0.00000119,0.00000218,-0.00000203,0.000
 00013,-0.00000222,0.00000034,0.00000388,0.00000618,-0.00000007,-0.0000
 0115,-0.00000038,-0.00000101,0.00000257,0.00000324,-0.00000649,0.00000
 151,-0.00000810,0.00000248,0.00001550,0.00002319,0.00001225,-0.0000005
 2,-0.00001710,-0.00002174,-0.00002986,-0.00001122,-0.00018489,-0.00006
 756,-0.00008133,0.00005273,0.00052840,0.00014814,0.00050185,0.00023240
 ,0.00084750,0.00038847,0.00006959,0.00166478,-0.00034074,-0.01305900,-
 0.01994676,0.00882514,0.00124479,0.00046654,-0.00101138,0.10622498,0.2
 2811649,0.04070825,0.07028126,-0.07431089,0.01566855,0.02774050,-0.012
 67961,0.00176266,0.00094716,0.00153612,-0.00002002,-0.00023704,-0.0000
 9161,-0.00005430,-0.00009149,0.00005466,0.00000949,-0.00000029,0.00001
 370,0.00000430,0.00000450,-0.00000171,-0.00000085,0.00000234,-0.000000
 45,0.00000154,0.00000057,-0.00000060,-0.00000058,0.00000012,-0.0000002
 8,0.00000005,0.00000016,-0.00000018,-0.00000171,-0.00000143,0.00000015
 ,0.00000087,0.00000032,-0.00000062,-0.00000079,-0.00000261,0.00000175,
 0.00000010,-0.00000017,-0.00000018,-0.00000442,-0.00000339,-0.00000007
 ,0.00000319,0.00000122,-0.00000280,0.00000270,-0.00000748,0.00001041,-
 0.00000762,0.00000147,-0.00000325,-0.00007558,-0.00002068,-0.00003204,
 0.00003694,0.00002171,-0.00000194,-0.00007359,-0.00020008,0.00031505,-
 0.00015352,-0.00006767,-0.00001980,-0.00105289,-0.00070789,-0.00000456
 ,0.00010079,-0.00033281,0.00139512,-0.00035625,-0.00035736,-0.00668192
 ,-0.00623476,-0.00882514,0.00329534,-0.00467840,-0.01017008,0.00346747
 ,-0.04558414,-0.07797576,0.08374276\\-0.00004465,0.,-0.00003449,-0.000
 15691,0.,0.00003340,0.00020068,0.,-0.00009709,-0.00015984,0.,0.0001101
 0,0.00015121,0.,-0.00009977,-0.00016410,0.,0.00010364,0.00016821,0.,-0
 .00014630,-0.00009243,0.,0.00013112,0.00001415,0.,0.00005462,0.0000116
 1,0.,-0.00001176,0.00000759,-0.00002183,-0.00001341,0.00000759,0.00002
 183,-0.00001341,0.00000556,-0.00005235,-0.00002311,0.00000556,0.000052
 35,-0.00002311,-0.00001764,0.00007185,0.00001479,-0.00001764,-0.000071
 85,0.00001479,0.00001908,-0.00005155,-0.00000881,0.00001908,0.00005155
 ,-0.00000881,-0.00002007,0.00003462,0.00001324,-0.00002007,-0.00003462
 ,0.00001324,0.00001560,-0.00005155,-0.00001408,0.00001560,0.00005155,-
 0.00001408,-0.00002054,0.00007185,0.00001039,-0.00002054,-0.00007185,0
 .00001039,0.00002344,-0.00005235,0.00000398,0.00002344,0.00005235,0.00
 000398,0.00001532,-0.00002183,-0.00000170,0.00001538,0.,-0.00000605,0.
 00001532,0.00002183,-0.00000170\\\@


 ABSOLUTISM, OBSOLETISM -- IF IT WORKS, IT'S OUT OF DATE

                          -- STAFFORD BEER
 Job cpu time:       0 days  0 hours  4 minutes 19.6 seconds.
 Elapsed time:       0 days  0 hours  1 minutes  4.9 seconds.
 File lengths (MBytes):  RWF=     57 Int=      0 D2E=      0 Chk=      4 Scr=      1
 Normal termination of Gaussian 16 at Tue Mar 22 10:57:29 2022.
