 Entering Gaussian System, Link 0=/usr/local/g16.b01/g16/g16
 Initial command:
 /usr/local/g16.b01/g16/l1.exe "/scratch/webmo-2626/96/Gau-48303.inp" -scrdir="/scratch/webmo-2626/96/"
 Entering Link 1 = /usr/local/g16.b01/g16/l1.exe PID=     48305.
  
 Copyright (c) 1988-2017, Gaussian, Inc.  All Rights Reserved.
  
 This is part of the Gaussian(R) 16 program.  It is based on
 the Gaussian(R) 09 system (copyright 2009, Gaussian, Inc.),
 the Gaussian(R) 03 system (copyright 2003, Gaussian, Inc.),
 the Gaussian(R) 98 system (copyright 1998, Gaussian, Inc.),
 the Gaussian(R) 94 system (copyright 1995, Gaussian, Inc.),
 the Gaussian 92(TM) system (copyright 1992, Gaussian, Inc.),
 the Gaussian 90(TM) system (copyright 1990, Gaussian, Inc.),
 the Gaussian 88(TM) system (copyright 1988, Gaussian, Inc.),
 the Gaussian 86(TM) system (copyright 1986, Carnegie Mellon
 University), and the Gaussian 82(TM) system (copyright 1983,
 Carnegie Mellon University). Gaussian is a federally registered
 trademark of Gaussian, Inc.
  
 This software contains proprietary and confidential information,
 including trade secrets, belonging to Gaussian, Inc.
  
 This software is provided under written license and may be
 used, copied, transmitted, or stored only in accord with that
 written license.
  
 The following legend is applicable only to US Government
 contracts under FAR:
  
                    RESTRICTED RIGHTS LEGEND
  
 Use, reproduction and disclosure by the US Government is
 subject to restrictions as set forth in subparagraphs (a)
 and (c) of the Commercial Computer Software - Restricted
 Rights clause in FAR 52.227-19.
  
 Gaussian, Inc.
 340 Quinnipiac St., Bldg. 40, Wallingford CT 06492
  
  
 ---------------------------------------------------------------
 Warning -- This program may not be used in any manner that
 competes with the business of Gaussian, Inc. or will provide
 assistance to any competitor of Gaussian, Inc.  The licensee
 of this program is prohibited from giving any competitor of
 Gaussian, Inc. access to this program.  By using this program,
 the user acknowledges that Gaussian, Inc. is engaged in the
 business of creating and licensing software in the field of
 computational chemistry and represents and warrants to the
 licensee that it is not a competitor of Gaussian, Inc. and that
 it will not use this program in any manner prohibited above.
 ---------------------------------------------------------------
  

 Cite this work as:
 Gaussian 16, Revision B.01,
 M. J. Frisch, G. W. Trucks, H. B. Schlegel, G. E. Scuseria, 
 M. A. Robb, J. R. Cheeseman, G. Scalmani, V. Barone, 
 G. A. Petersson, H. Nakatsuji, X. Li, M. Caricato, A. V. Marenich, 
 J. Bloino, B. G. Janesko, R. Gomperts, B. Mennucci, H. P. Hratchian, 
 J. V. Ortiz, A. F. Izmaylov, J. L. Sonnenberg, D. Williams-Young, 
 F. Ding, F. Lipparini, F. Egidi, J. Goings, B. Peng, A. Petrone, 
 T. Henderson, D. Ranasinghe, V. G. Zakrzewski, J. Gao, N. Rega, 
 G. Zheng, W. Liang, M. Hada, M. Ehara, K. Toyota, R. Fukuda, 
 J. Hasegawa, M. Ishida, T. Nakajima, Y. Honda, O. Kitao, H. Nakai, 
 T. Vreven, K. Throssell, J. A. Montgomery, Jr., J. E. Peralta, 
 F. Ogliaro, M. J. Bearpark, J. J. Heyd, E. N. Brothers, K. N. Kudin, 
 V. N. Staroverov, T. A. Keith, R. Kobayashi, J. Normand, 
 K. Raghavachari, A. P. Rendell, J. C. Burant, S. S. Iyengar, 
 J. Tomasi, M. Cossi, J. M. Millam, M. Klene, C. Adamo, R. Cammi, 
 J. W. Ochterski, R. L. Martin, K. Morokuma, O. Farkas, 
 J. B. Foresman, and D. J. Fox, Gaussian, Inc., Wallingford CT, 2016.
 
 ******************************************
 Gaussian 16:  EM64L-G16RevB.01 20-Dec-2017
                22-Mar-2022 
 ******************************************
 %NProcShared=4
 Will use up to    4 processors via shared memory.
 %Mem=8GB
 ---------------------------------------------
 #N PBEPBE/6-31G(d) OPT FREQ Geom=Connectivity
 ---------------------------------------------
 1/18=20,19=15,26=3,38=1,57=2/1,3;
 2/9=110,12=2,17=6,18=5,40=1/2;
 3/5=1,6=6,7=1,11=2,25=1,30=1,71=1,74=1009/1,2,3;
 4//1;
 5/5=2,38=5/2;
 6/7=2,8=2,9=2,10=2,28=1/1;
 7//1,2,3,16;
 1/18=20,19=15,26=3/3(2);
 2/9=110/2;
 99//99;
 2/9=110/2;
 3/5=1,6=6,7=1,11=2,25=1,30=1,71=1,74=1009/1,2,3;
 4/5=5,16=3,69=1/1;
 5/5=2,38=5/2;
 7//1,2,3,16;
 1/18=20,19=15,26=3/3(-5);
 2/9=110/2;
 6/7=2,8=2,9=2,10=2,19=2,28=1/1;
 99/9=1/99;
 -------------
 polypropylene
 -------------
 Symbolic Z-matrix:
 Charge =  0 Multiplicity = 1
 C
 C                    1    B1
 C                    2    B2       1    A1
 C                    3    B3       2    A2       1    D1       0
 C                    4    B4       3    A3       2    D2       0
 C                    5    B5       4    A4       3    D3       0
 C                    6    B6       5    A5       4    D4       0
 C                    7    B7       6    A6       5    D5       0
 C                    8    B8       7    A7       6    D6       0
 H                    9    B9       8    A8       7    D7       0
 H                    9    B10      8    A9       7    D8       0
 H                    9    B11      8    A10      7    D9       0
 H                    8    B12      7    A11      6    D10      0
 C                    8    B13      7    A12      6    D11      0
 H                    14   B14      8    A13      7    D12      0
 H                    14   B15      8    A14      7    D13      0
 H                    14   B16      8    A15      7    D14      0
 C                    7    B17      6    A16      5    D15      0
 H                    18   B18      7    A17      6    D16      0
 H                    18   B19      7    A18      6    D17      0
 H                    18   B20      7    A19      6    D18      0
 H                    7    B21      6    A20      5    D19      0
 C                    6    B22      5    A21      4    D20      0
 H                    23   B23      6    A22      5    D21      0
 H                    23   B24      6    A23      5    D22      0
 H                    23   B25      6    A24      5    D23      0
 H                    6    B26      5    A25      4    D24      0
 C                    5    B27      4    A26      3    D25      0
 H                    28   B28      5    A27      4    D26      0
 H                    28   B29      5    A28      4    D27      0
 H                    28   B30      5    A29      4    D28      0
 H                    5    B31      4    A30      3    D29      0
 H                    4    B32      3    A31      2    D30      0
 C                    4    B33      3    A32      2    D31      0
 H                    34   B34      4    A33      3    D32      0
 H                    34   B35      4    A34      3    D33      0
 H                    34   B36      4    A35      3    D34      0
 H                    3    B37      2    A36      1    D35      0
 C                    3    B38      2    A37      1    D36      0
 H                    39   B39      3    A38      2    D37      0
 H                    39   B40      3    A39      2    D38      0
 H                    39   B41      3    A40      2    D39      0
 H                    2    B42      1    A41      3    D40      0
 C                    2    B43      1    A42      3    D41      0
 H                    44   B44      2    A43      1    D42      0
 H                    44   B45      2    A44      1    D43      0
 H                    44   B46      2    A45      1    D44      0
 H                    1    B47      2    A46      3    D45      0
 H                    1    B48      2    A47      3    D46      0
 H                    1    B49      2    A48      3    D47      0
       Variables:
  B1                    1.54107                  
  B2                    1.55848                  
  B3                    1.56075                  
  B4                    1.562                    
  B5                    1.56976                  
  B6                    1.5718                   
  B7                    1.55824                  
  B8                    1.54308                  
  B9                    1.11476                  
  B10                   1.11187                  
  B11                   1.11386                  
  B12                   1.1134                   
  B13                   1.53961                  
  B14                   1.11292                  
  B15                   1.11327                  
  B16                   1.11485                  
  B17                   1.54578                  
  B18                   1.10926                  
  B19                   1.11162                  
  B20                   1.11424                  
  B21                   1.11534                  
  B22                   1.54943                  
  B23                   1.11422                  
  B24                   1.1109                   
  B25                   1.10991                  
  B26                   1.1141                   
  B27                   1.53938                  
  B28                   1.11039                  
  B29                   1.11367                  
  B30                   1.11017                  
  B31                   1.11323                  
  B32                   1.10707                  
  B33                   1.54325                  
  B34                   1.11208                  
  B35                   1.11349                  
  B36                   1.11288                  
  B37                   1.11524                  
  B38                   1.54313                  
  B39                   1.11186                  
  B40                   1.1124                   
  B41                   1.11206                  
  B42                   1.11518                  
  B43                   1.54249                  
  B44                   1.11369                  
  B45                   1.11512                  
  B46                   1.11286                  
  B47                   1.11327                  
  B48                   1.11503                  
  B49                   1.11468                  
  A1                  115.78202                  
  A2                  113.06109                  
  A3                  116.36589                  
  A4                  116.35372                  
  A5                  113.96717                  
  A6                  115.99774                  
  A7                  114.32034                  
  A8                  110.85464                  
  A9                  113.11963                  
  A10                 111.88981                  
  A11                 108.25829                  
  A12                 112.96089                  
  A13                 112.51741                  
  A14                 111.62869                  
  A15                 110.97237                  
  A16                 112.40011                  
  A17                 114.37245                  
  A18                 112.14043                  
  A19                 111.71952                  
  A20                 106.06435                  
  A21                 108.87265                  
  A22                 110.93678                  
  A23                 113.47012                  
  A24                 113.84048                  
  A25                 108.69444                  
  A26                 109.54766                  
  A27                 111.44229                  
  A28                 111.89141                  
  A29                 113.3458                   
  A30                 106.40589                  
  A31                 102.67563                  
  A32                 111.55289                  
  A33                 113.19776                  
  A34                 111.58253                  
  A35                 112.03809                  
  A36                 106.15306                  
  A37                 111.0617                   
  A38                 111.56771                  
  A39                 112.77893                  
  A40                 112.21056                  
  A41                 106.67517                  
  A42                 108.40666                  
  A43                 111.99624                  
  A44                 110.69413                  
  A45                 112.10416                  
  A46                 111.93102                  
  A47                 110.5335                   
  A48                 113.46683                  
  D1                   67.0761                   
  D2                 -161.71287                  
  D3                  166.1832                   
  D4                 -176.44797                  
  D5                  149.70705                  
  D6                 -163.56024                  
  D7                  170.20238                  
  D8                  -70.82787                  
  D9                   51.10868                  
  D10                 -49.75036                  
  D11                  70.9323                   
  D12                 -47.60715                  
  D13                  72.55741                  
  D14                -168.10923                  
  D15                 -84.31138                  
  D16                  70.49642                  
  D17                -171.99158                  
  D18                 -50.91766                  
  D19                  33.84463                  
  D20                 -50.17537                  
  D21                 -60.72313                  
  D22                  61.5466                   
  D23                 176.65336                  
  D24                  64.83837                  
  D25                 -62.81009                  
  D26                 157.39938                  
  D27                 -79.29158                  
  D28                  41.00366                  
  D29                  52.40214                  
  D30                 -45.32149                  
  D31                  69.9109                   
  D32                 -55.09909                  
  D33                  65.31308                  
  D34                -173.78264                  
  D35                -176.82742                  
  D36                 -61.68067                  
  D37                  70.30537                  
  D38                -168.24842                  
  D39                 -51.26224                  
  D40                 120.02893                  
  D41                -127.44587                  
  D42                 177.74601                  
  D43                 -63.07872                  
  D44                  55.85279                  
  D45                  60.3561                   
  D46                 179.33081                  
  D47                 -62.3996                   
 

 GradGradGradGradGradGradGradGradGradGradGradGradGradGradGradGradGradGrad
 Berny optimization.
 Initialization pass.
                           ----------------------------
                           !    Initial Parameters    !
                           ! (Angstroms and Degrees)  !
 --------------------------                            --------------------------
 ! Name  Definition              Value          Derivative Info.                !
 --------------------------------------------------------------------------------
 ! R1    R(1,2)                  1.5411         estimate D2E/DX2                !
 ! R2    R(1,48)                 1.1133         estimate D2E/DX2                !
 ! R3    R(1,49)                 1.115          estimate D2E/DX2                !
 ! R4    R(1,50)                 1.1147         estimate D2E/DX2                !
 ! R5    R(2,3)                  1.5585         estimate D2E/DX2                !
 ! R6    R(2,43)                 1.1152         estimate D2E/DX2                !
 ! R7    R(2,44)                 1.5425         estimate D2E/DX2                !
 ! R8    R(3,4)                  1.5608         estimate D2E/DX2                !
 ! R9    R(3,38)                 1.1152         estimate D2E/DX2                !
 ! R10   R(3,39)                 1.5431         estimate D2E/DX2                !
 ! R11   R(4,5)                  1.562          estimate D2E/DX2                !
 ! R12   R(4,33)                 1.1071         estimate D2E/DX2                !
 ! R13   R(4,34)                 1.5433         estimate D2E/DX2                !
 ! R14   R(5,6)                  1.5698         estimate D2E/DX2                !
 ! R15   R(5,28)                 1.5394         estimate D2E/DX2                !
 ! R16   R(5,32)                 1.1132         estimate D2E/DX2                !
 ! R17   R(6,7)                  1.5718         estimate D2E/DX2                !
 ! R18   R(6,23)                 1.5494         estimate D2E/DX2                !
 ! R19   R(6,27)                 1.1141         estimate D2E/DX2                !
 ! R20   R(7,8)                  1.5582         estimate D2E/DX2                !
 ! R21   R(7,18)                 1.5458         estimate D2E/DX2                !
 ! R22   R(7,22)                 1.1153         estimate D2E/DX2                !
 ! R23   R(8,9)                  1.5431         estimate D2E/DX2                !
 ! R24   R(8,13)                 1.1134         estimate D2E/DX2                !
 ! R25   R(8,14)                 1.5396         estimate D2E/DX2                !
 ! R26   R(9,10)                 1.1148         estimate D2E/DX2                !
 ! R27   R(9,11)                 1.1119         estimate D2E/DX2                !
 ! R28   R(9,12)                 1.1139         estimate D2E/DX2                !
 ! R29   R(14,15)                1.1129         estimate D2E/DX2                !
 ! R30   R(14,16)                1.1133         estimate D2E/DX2                !
 ! R31   R(14,17)                1.1148         estimate D2E/DX2                !
 ! R32   R(18,19)                1.1093         estimate D2E/DX2                !
 ! R33   R(18,20)                1.1116         estimate D2E/DX2                !
 ! R34   R(18,21)                1.1142         estimate D2E/DX2                !
 ! R35   R(23,24)                1.1142         estimate D2E/DX2                !
 ! R36   R(23,25)                1.1109         estimate D2E/DX2                !
 ! R37   R(23,26)                1.1099         estimate D2E/DX2                !
 ! R38   R(28,29)                1.1104         estimate D2E/DX2                !
 ! R39   R(28,30)                1.1137         estimate D2E/DX2                !
 ! R40   R(28,31)                1.1102         estimate D2E/DX2                !
 ! R41   R(34,35)                1.1121         estimate D2E/DX2                !
 ! R42   R(34,36)                1.1135         estimate D2E/DX2                !
 ! R43   R(34,37)                1.1129         estimate D2E/DX2                !
 ! R44   R(39,40)                1.1119         estimate D2E/DX2                !
 ! R45   R(39,41)                1.1124         estimate D2E/DX2                !
 ! R46   R(39,42)                1.1121         estimate D2E/DX2                !
 ! R47   R(44,45)                1.1137         estimate D2E/DX2                !
 ! R48   R(44,46)                1.1151         estimate D2E/DX2                !
 ! R49   R(44,47)                1.1129         estimate D2E/DX2                !
 ! A1    A(2,1,48)             111.931          estimate D2E/DX2                !
 ! A2    A(2,1,49)             110.5335         estimate D2E/DX2                !
 ! A3    A(2,1,50)             113.4668         estimate D2E/DX2                !
 ! A4    A(48,1,49)            106.8469         estimate D2E/DX2                !
 ! A5    A(48,1,50)            108.1594         estimate D2E/DX2                !
 ! A6    A(49,1,50)            105.4959         estimate D2E/DX2                !
 ! A7    A(1,2,3)              115.782          estimate D2E/DX2                !
 ! A8    A(1,2,43)             106.6752         estimate D2E/DX2                !
 ! A9    A(1,2,44)             108.4067         estimate D2E/DX2                !
 ! A10   A(3,2,43)             107.8704         estimate D2E/DX2                !
 ! A11   A(3,2,44)             112.4662         estimate D2E/DX2                !
 ! A12   A(43,2,44)            104.9276         estimate D2E/DX2                !
 ! A13   A(2,3,4)              113.0611         estimate D2E/DX2                !
 ! A14   A(2,3,38)             106.1531         estimate D2E/DX2                !
 ! A15   A(2,3,39)             111.0617         estimate D2E/DX2                !
 ! A16   A(4,3,38)             106.2469         estimate D2E/DX2                !
 ! A17   A(4,3,39)             113.3745         estimate D2E/DX2                !
 ! A18   A(38,3,39)            106.3149         estimate D2E/DX2                !
 ! A19   A(3,4,5)              116.3659         estimate D2E/DX2                !
 ! A20   A(3,4,33)             102.6756         estimate D2E/DX2                !
 ! A21   A(3,4,34)             111.5529         estimate D2E/DX2                !
 ! A22   A(5,4,33)             106.9242         estimate D2E/DX2                !
 ! A23   A(5,4,34)             110.7447         estimate D2E/DX2                !
 ! A24   A(33,4,34)            107.831          estimate D2E/DX2                !
 ! A25   A(4,5,6)              116.3537         estimate D2E/DX2                !
 ! A26   A(4,5,28)             109.5477         estimate D2E/DX2                !
 ! A27   A(4,5,32)             106.4059         estimate D2E/DX2                !
 ! A28   A(6,5,28)             113.9248         estimate D2E/DX2                !
 ! A29   A(6,5,32)             102.7821         estimate D2E/DX2                !
 ! A30   A(28,5,32)            106.8924         estimate D2E/DX2                !
 ! A31   A(5,6,7)              113.9672         estimate D2E/DX2                !
 ! A32   A(5,6,23)             108.8726         estimate D2E/DX2                !
 ! A33   A(5,6,27)             108.6944         estimate D2E/DX2                !
 ! A34   A(7,6,23)             112.3434         estimate D2E/DX2                !
 ! A35   A(7,6,27)             106.5976         estimate D2E/DX2                !
 ! A36   A(23,6,27)            105.9809         estimate D2E/DX2                !
 ! A37   A(6,7,8)              115.9977         estimate D2E/DX2                !
 ! A38   A(6,7,18)             112.4001         estimate D2E/DX2                !
 ! A39   A(6,7,22)             106.0643         estimate D2E/DX2                !
 ! A40   A(8,7,18)             108.735          estimate D2E/DX2                !
 ! A41   A(8,7,22)             104.8013         estimate D2E/DX2                !
 ! A42   A(18,7,22)            108.2874         estimate D2E/DX2                !
 ! A43   A(7,8,9)              114.3203         estimate D2E/DX2                !
 ! A44   A(7,8,13)             108.2583         estimate D2E/DX2                !
 ! A45   A(7,8,14)             112.9609         estimate D2E/DX2                !
 ! A46   A(9,8,13)             102.7282         estimate D2E/DX2                !
 ! A47   A(9,8,14)             109.067          estimate D2E/DX2                !
 ! A48   A(13,8,14)            108.9037         estimate D2E/DX2                !
 ! A49   A(8,9,10)             110.8546         estimate D2E/DX2                !
 ! A50   A(8,9,11)             113.1196         estimate D2E/DX2                !
 ! A51   A(8,9,12)             111.8898         estimate D2E/DX2                !
 ! A52   A(10,9,11)            106.0504         estimate D2E/DX2                !
 ! A53   A(10,9,12)            106.7921         estimate D2E/DX2                !
 ! A54   A(11,9,12)            107.76           estimate D2E/DX2                !
 ! A55   A(8,14,15)            112.5174         estimate D2E/DX2                !
 ! A56   A(8,14,16)            111.6287         estimate D2E/DX2                !
 ! A57   A(8,14,17)            110.9724         estimate D2E/DX2                !
 ! A58   A(15,14,16)           106.8782         estimate D2E/DX2                !
 ! A59   A(15,14,17)           107.5022         estimate D2E/DX2                !
 ! A60   A(16,14,17)           107.0559         estimate D2E/DX2                !
 ! A61   A(7,18,19)            114.3725         estimate D2E/DX2                !
 ! A62   A(7,18,20)            112.1404         estimate D2E/DX2                !
 ! A63   A(7,18,21)            111.7195         estimate D2E/DX2                !
 ! A64   A(19,18,20)           103.5455         estimate D2E/DX2                !
 ! A65   A(19,18,21)           106.7593         estimate D2E/DX2                !
 ! A66   A(20,18,21)           107.7386         estimate D2E/DX2                !
 ! A67   A(6,23,24)            110.9368         estimate D2E/DX2                !
 ! A68   A(6,23,25)            113.4701         estimate D2E/DX2                !
 ! A69   A(6,23,26)            113.8405         estimate D2E/DX2                !
 ! A70   A(24,23,25)           108.3658         estimate D2E/DX2                !
 ! A71   A(24,23,26)           108.4288         estimate D2E/DX2                !
 ! A72   A(25,23,26)           101.2456         estimate D2E/DX2                !
 ! A73   A(5,28,29)            111.4423         estimate D2E/DX2                !
 ! A74   A(5,28,30)            111.8914         estimate D2E/DX2                !
 ! A75   A(5,28,31)            113.3458         estimate D2E/DX2                !
 ! A76   A(29,28,30)           109.7543         estimate D2E/DX2                !
 ! A77   A(29,28,31)           103.5949         estimate D2E/DX2                !
 ! A78   A(30,28,31)           106.38           estimate D2E/DX2                !
 ! A79   A(4,34,35)            113.1978         estimate D2E/DX2                !
 ! A80   A(4,34,36)            111.5825         estimate D2E/DX2                !
 ! A81   A(4,34,37)            112.0381         estimate D2E/DX2                !
 ! A82   A(35,34,36)           106.7247         estimate D2E/DX2                !
 ! A83   A(35,34,37)           105.1371         estimate D2E/DX2                !
 ! A84   A(36,34,37)           107.7388         estimate D2E/DX2                !
 ! A85   A(3,39,40)            111.5677         estimate D2E/DX2                !
 ! A86   A(3,39,41)            112.7789         estimate D2E/DX2                !
 ! A87   A(3,39,42)            112.2106         estimate D2E/DX2                !
 ! A88   A(40,39,41)           107.7584         estimate D2E/DX2                !
 ! A89   A(40,39,42)           108.1659         estimate D2E/DX2                !
 ! A90   A(41,39,42)           103.9445         estimate D2E/DX2                !
 ! A91   A(2,44,45)            111.9962         estimate D2E/DX2                !
 ! A92   A(2,44,46)            110.6941         estimate D2E/DX2                !
 ! A93   A(2,44,47)            112.1042         estimate D2E/DX2                !
 ! A94   A(45,44,46)           106.8866         estimate D2E/DX2                !
 ! A95   A(45,44,47)           108.2362         estimate D2E/DX2                !
 ! A96   A(46,44,47)           106.6375         estimate D2E/DX2                !
 ! D1    D(48,1,2,3)            60.3561         estimate D2E/DX2                !
 ! D2    D(48,1,2,43)         -179.615          estimate D2E/DX2                !
 ! D3    D(48,1,2,44)          -67.0898         estimate D2E/DX2                !
 ! D4    D(49,1,2,3)           179.3308         estimate D2E/DX2                !
 ! D5    D(49,1,2,43)          -60.6403         estimate D2E/DX2                !
 ! D6    D(49,1,2,44)           51.8849         estimate D2E/DX2                !
 ! D7    D(50,1,2,3)           -62.3996         estimate D2E/DX2                !
 ! D8    D(50,1,2,43)           57.6293         estimate D2E/DX2                !
 ! D9    D(50,1,2,44)          170.1545         estimate D2E/DX2                !
 ! D10   D(1,2,3,4)             67.0761         estimate D2E/DX2                !
 ! D11   D(1,2,3,38)          -176.8274         estimate D2E/DX2                !
 ! D12   D(1,2,3,39)           -61.6807         estimate D2E/DX2                !
 ! D13   D(43,2,3,4)           -52.3013         estimate D2E/DX2                !
 ! D14   D(43,2,3,38)           63.7951         estimate D2E/DX2                !
 ! D15   D(43,2,3,39)          178.9419         estimate D2E/DX2                !
 ! D16   D(44,2,3,4)          -167.5289         estimate D2E/DX2                !
 ! D17   D(44,2,3,38)          -51.4324         estimate D2E/DX2                !
 ! D18   D(44,2,3,39)           63.7144         estimate D2E/DX2                !
 ! D19   D(1,2,44,45)          177.746          estimate D2E/DX2                !
 ! D20   D(1,2,44,46)          -63.0787         estimate D2E/DX2                !
 ! D21   D(1,2,44,47)           55.8528         estimate D2E/DX2                !
 ! D22   D(3,2,44,45)           48.4252         estimate D2E/DX2                !
 ! D23   D(3,2,44,46)          167.6004         estimate D2E/DX2                !
 ! D24   D(3,2,44,47)          -73.468          estimate D2E/DX2                !
 ! D25   D(43,2,44,45)         -68.5696         estimate D2E/DX2                !
 ! D26   D(43,2,44,46)          50.6057         estimate D2E/DX2                !
 ! D27   D(43,2,44,47)         169.5372         estimate D2E/DX2                !
 ! D28   D(2,3,4,5)           -161.7129         estimate D2E/DX2                !
 ! D29   D(2,3,4,33)           -45.3215         estimate D2E/DX2                !
 ! D30   D(2,3,4,34)            69.9109         estimate D2E/DX2                !
 ! D31   D(38,3,4,5)            82.2464         estimate D2E/DX2                !
 ! D32   D(38,3,4,33)         -161.3622         estimate D2E/DX2                !
 ! D33   D(38,3,4,34)          -46.1298         estimate D2E/DX2                !
 ! D34   D(39,3,4,5)           -34.1586         estimate D2E/DX2                !
 ! D35   D(39,3,4,33)           82.2328         estimate D2E/DX2                !
 ! D36   D(39,3,4,34)         -162.5348         estimate D2E/DX2                !
 ! D37   D(2,3,39,40)           70.3054         estimate D2E/DX2                !
 ! D38   D(2,3,39,41)         -168.2484         estimate D2E/DX2                !
 ! D39   D(2,3,39,42)          -51.2622         estimate D2E/DX2                !
 ! D40   D(4,3,39,40)          -58.2834         estimate D2E/DX2                !
 ! D41   D(4,3,39,41)           63.1628         estimate D2E/DX2                !
 ! D42   D(4,3,39,42)         -179.8511         estimate D2E/DX2                !
 ! D43   D(38,3,39,40)        -174.6485         estimate D2E/DX2                !
 ! D44   D(38,3,39,41)         -53.2023         estimate D2E/DX2                !
 ! D45   D(38,3,39,42)          63.7839         estimate D2E/DX2                !
 ! D46   D(3,4,5,6)            166.1832         estimate D2E/DX2                !
 ! D47   D(3,4,5,28)           -62.8101         estimate D2E/DX2                !
 ! D48   D(3,4,5,32)            52.4021         estimate D2E/DX2                !
 ! D49   D(33,4,5,6)            52.1782         estimate D2E/DX2                !
 ! D50   D(33,4,5,28)         -176.8151         estimate D2E/DX2                !
 ! D51   D(33,4,5,32)          -61.6029         estimate D2E/DX2                !
 ! D52   D(34,4,5,6)           -65.0485         estimate D2E/DX2                !
 ! D53   D(34,4,5,28)           65.9582         estimate D2E/DX2                !
 ! D54   D(34,4,5,32)         -178.8296         estimate D2E/DX2                !
 ! D55   D(3,4,34,35)          -55.0991         estimate D2E/DX2                !
 ! D56   D(3,4,34,36)           65.3131         estimate D2E/DX2                !
 ! D57   D(3,4,34,37)         -173.7826         estimate D2E/DX2                !
 ! D58   D(5,4,34,35)          173.5864         estimate D2E/DX2                !
 ! D59   D(5,4,34,36)          -66.0015         estimate D2E/DX2                !
 ! D60   D(5,4,34,37)           54.9028         estimate D2E/DX2                !
 ! D61   D(33,4,34,35)          56.9179         estimate D2E/DX2                !
 ! D62   D(33,4,34,36)         177.3301         estimate D2E/DX2                !
 ! D63   D(33,4,34,37)         -61.7656         estimate D2E/DX2                !
 ! D64   D(4,5,6,7)           -176.448          estimate D2E/DX2                !
 ! D65   D(4,5,6,23)           -50.1754         estimate D2E/DX2                !
 ! D66   D(4,5,6,27)            64.8384         estimate D2E/DX2                !
 ! D67   D(28,5,6,7)            54.6284         estimate D2E/DX2                !
 ! D68   D(28,5,6,23)         -179.099          estimate D2E/DX2                !
 ! D69   D(28,5,6,27)          -64.0853         estimate D2E/DX2                !
 ! D70   D(32,5,6,7)           -60.6247         estimate D2E/DX2                !
 ! D71   D(32,5,6,23)           65.6479         estimate D2E/DX2                !
 ! D72   D(32,5,6,27)         -179.3383         estimate D2E/DX2                !
 ! D73   D(4,5,28,29)          157.3994         estimate D2E/DX2                !
 ! D74   D(4,5,28,30)          -79.2916         estimate D2E/DX2                !
 ! D75   D(4,5,28,31)           41.0037         estimate D2E/DX2                !
 ! D76   D(6,5,28,29)          -70.3121         estimate D2E/DX2                !
 ! D77   D(6,5,28,30)           52.9969         estimate D2E/DX2                !
 ! D78   D(6,5,28,31)          173.2922         estimate D2E/DX2                !
 ! D79   D(32,5,28,29)          42.4983         estimate D2E/DX2                !
 ! D80   D(32,5,28,30)         165.8074         estimate D2E/DX2                !
 ! D81   D(32,5,28,31)         -73.8974         estimate D2E/DX2                !
 ! D82   D(5,6,7,8)            149.707          estimate D2E/DX2                !
 ! D83   D(5,6,7,18)           -84.3114         estimate D2E/DX2                !
 ! D84   D(5,6,7,22)            33.8446         estimate D2E/DX2                !
 ! D85   D(23,6,7,8)            25.2746         estimate D2E/DX2                !
 ! D86   D(23,6,7,18)          151.2561         estimate D2E/DX2                !
 ! D87   D(23,6,7,22)          -90.5878         estimate D2E/DX2                !
 ! D88   D(27,6,7,8)           -90.391          estimate D2E/DX2                !
 ! D89   D(27,6,7,18)           35.5906         estimate D2E/DX2                !
 ! D90   D(27,6,7,22)          153.7466         estimate D2E/DX2                !
 ! D91   D(5,6,23,24)          -60.7231         estimate D2E/DX2                !
 ! D92   D(5,6,23,25)           61.5466         estimate D2E/DX2                !
 ! D93   D(5,6,23,26)          176.6534         estimate D2E/DX2                !
 ! D94   D(7,6,23,24)           66.4799         estimate D2E/DX2                !
 ! D95   D(7,6,23,25)         -171.2504         estimate D2E/DX2                !
 ! D96   D(7,6,23,26)          -56.1436         estimate D2E/DX2                !
 ! D97   D(27,6,23,24)        -177.4827         estimate D2E/DX2                !
 ! D98   D(27,6,23,25)         -55.213          estimate D2E/DX2                !
 ! D99   D(27,6,23,26)          59.8938         estimate D2E/DX2                !
 ! D100  D(6,7,8,9)           -163.5602         estimate D2E/DX2                !
 ! D101  D(6,7,8,13)           -49.7504         estimate D2E/DX2                !
 ! D102  D(6,7,8,14)            70.9323         estimate D2E/DX2                !
 ! D103  D(18,7,8,9)            68.6259         estimate D2E/DX2                !
 ! D104  D(18,7,8,13)         -177.5642         estimate D2E/DX2                !
 ! D105  D(18,7,8,14)          -56.8816         estimate D2E/DX2                !
 ! D106  D(22,7,8,9)           -46.9897         estimate D2E/DX2                !
 ! D107  D(22,7,8,13)           66.8202         estimate D2E/DX2                !
 ! D108  D(22,7,8,14)         -172.4972         estimate D2E/DX2                !
 ! D109  D(6,7,18,19)           70.4964         estimate D2E/DX2                !
 ! D110  D(6,7,18,20)         -171.9916         estimate D2E/DX2                !
 ! D111  D(6,7,18,21)          -50.9177         estimate D2E/DX2                !
 ! D112  D(8,7,18,19)         -159.6798         estimate D2E/DX2                !
 ! D113  D(8,7,18,20)          -42.1678         estimate D2E/DX2                !
 ! D114  D(8,7,18,21)           78.9062         estimate D2E/DX2                !
 ! D115  D(22,7,18,19)         -46.3393         estimate D2E/DX2                !
 ! D116  D(22,7,18,20)          71.1727         estimate D2E/DX2                !
 ! D117  D(22,7,18,21)        -167.7534         estimate D2E/DX2                !
 ! D118  D(7,8,9,10)           170.2024         estimate D2E/DX2                !
 ! D119  D(7,8,9,11)           -70.8279         estimate D2E/DX2                !
 ! D120  D(7,8,9,12)            51.1087         estimate D2E/DX2                !
 ! D121  D(13,8,9,10)           53.1659         estimate D2E/DX2                !
 ! D122  D(13,8,9,11)          172.1356         estimate D2E/DX2                !
 ! D123  D(13,8,9,12)          -65.9278         estimate D2E/DX2                !
 ! D124  D(14,8,9,10)          -62.2695         estimate D2E/DX2                !
 ! D125  D(14,8,9,11)           56.7003         estimate D2E/DX2                !
 ! D126  D(14,8,9,12)          178.6369         estimate D2E/DX2                !
 ! D127  D(7,8,14,15)          -47.6072         estimate D2E/DX2                !
 ! D128  D(7,8,14,16)           72.5574         estimate D2E/DX2                !
 ! D129  D(7,8,14,17)         -168.1092         estimate D2E/DX2                !
 ! D130  D(9,8,14,15)         -175.8995         estimate D2E/DX2                !
 ! D131  D(9,8,14,16)          -55.7349         estimate D2E/DX2                !
 ! D132  D(9,8,14,17)           63.5984         estimate D2E/DX2                !
 ! D133  D(13,8,14,15)          72.7071         estimate D2E/DX2                !
 ! D134  D(13,8,14,16)        -167.1283         estimate D2E/DX2                !
 ! D135  D(13,8,14,17)         -47.7949         estimate D2E/DX2                !
 --------------------------------------------------------------------------------
 Trust Radius=3.00D-01 FncErr=1.00D-07 GrdErr=1.00D-06 EigMax=2.50D+02 EigMin=1.00D-04
 Number of steps in this run=    290 maximum allowed number of steps=    300.
 GradGradGradGradGradGradGradGradGradGradGradGradGradGradGradGradGradGrad

                          Input orientation:                          
 ---------------------------------------------------------------------
 Center     Atomic      Atomic             Coordinates (Angstroms)
 Number     Number       Type             X           Y           Z
 ---------------------------------------------------------------------
      1          6           0        0.000000    0.000000    0.000000
      2          6           0        0.000000    0.000000    1.541074
      3          6           0        1.403344    0.000000    2.218933
      4          6           0        2.197137    1.322615    1.981181
      5          6           0        3.738610    1.260001    2.225666
      6          6           0        4.580950    2.464895    1.675344
      7          6           0        6.131790    2.303053    1.873514
      8          6           0        7.032354    2.984164    0.799655
      9          6           0        8.492975    2.486640    0.786852
     10          1           0        9.036595    2.874704   -0.105660
     11          1           0        9.076256    2.822185    1.671983
     12          1           0        8.552745    1.375286    0.741969
     13          1           0        6.662332    2.684603   -0.206829
     14          6           0        7.025240    4.520698    0.896739
     15          1           0        5.996986    4.937509    0.983628
     16          1           0        7.595049    4.878458    1.783697
     17          1           0        7.498129    4.979532   -0.002556
     18          6           0        6.597506    2.760537    3.274681
     19          1           0        6.282720    2.092537    4.102411
     20          1           0        7.705497    2.779468    3.362415
     21          1           0        6.219886    3.779114    3.522522
     22          1           0        6.343645    1.212634    1.773023
     23          6           0        4.198699    2.708348    0.193674
     24          1           0        4.420237    1.810208   -0.427414
     25          1           0        3.130492    2.977851    0.050868
     26          1           0        4.705704    3.584059   -0.262371
     27          1           0        4.284604    3.387994    2.224229
     28          6           0        4.012646    0.930387    3.704166
     29          1           0        5.021717    0.487671    3.841074
     30          1           0        3.902994    1.826289    4.356552
     31          1           0        3.330503    0.157565    4.116362
     32          1           0        4.117249    0.401071    1.627199
     33          1           0        2.049555    1.503317    0.898971
     34          6           0        1.569718    2.505977    2.747753
     35          1           0        0.493210    2.658025    2.513825
     36          1           0        1.641209    2.364104    3.849855
     37          1           0        2.060805    3.472849    2.497789
     38          1           0        1.217514   -0.059285    3.316987
     39          6           0        2.199826   -1.267690    1.845008
     40          1           0        2.516563   -1.251873    0.779331
     41          1           0        3.111468   -1.402931    2.467947
     42          1           0        1.615723   -2.197807    2.019331
     43          1           0       -0.534611    0.924895    1.861071
     44          6           0       -0.889870   -1.161973    2.028129
     45          1           0       -0.900175   -1.242224    3.138880
     46          1           0       -1.946336   -1.011700    1.704407
     47          1           0       -0.565103   -2.141339    1.611207
     48          1           0        0.510786   -0.897543   -0.415796
     49          1           0       -1.044117   -0.012195   -0.391102
     50          1           0        0.473721    0.906129   -0.443887
 ---------------------------------------------------------------------
                    Distance matrix (angstroms):
                    1          2          3          4          5
     1  C    0.000000
     2  C    1.541074   0.000000
     3  C    2.625460   1.558482   0.000000
     4  C    3.240648   2.602002   1.560751   0.000000
     5  C    4.529724   4.004182   2.653511   1.561997   0.000000
     6  C    5.465125   5.203733   4.058125   2.660997   1.569764
     7  C    6.812706   6.558462   5.270823   4.056396   2.634251
     8  C    7.681060   7.675216   6.527277   5.247483   3.981833
     9  C    8.884432   8.881602   7.648340   6.512983   5.116523
    10  H    9.483414   9.624745   8.481403   7.317245   6.009242
    11  H    9.650838   9.505803   8.193746   7.047453   5.589047
    12  H    8.694331   8.699393   7.428781   6.475506   5.038903
    13  H    7.185857   7.392491   6.383446   5.155615   4.061364
    14  C    8.402074   8.378894   7.334209   5.891886   4.816651
    15  H    7.830094   7.788041   6.856131   5.338673   4.490767
    16  H    9.201396   9.030116   7.894682   6.466875   5.306664
    17  H    9.000983   9.132386   8.177847   6.738604   5.738804
    18  C    7.865824   7.358875   5.976160   4.806663   3.394897
    19  H    7.789805   7.100122   5.633339   4.667374   3.269217
    20  H    8.854714   8.391509   6.982130   5.862786   4.397405
    21  H    8.085595   7.542866   6.259403   4.959096   3.766231
    22  H    6.697456   6.462671   5.106456   4.153186   2.644491
    23  C    5.000174   5.174912   4.387578   3.020214   2.537397
    24  H    4.795626   5.166264   4.402460   3.313797   2.793953
    25  H    4.320899   4.570371   4.068310   2.708702   2.837352
    26  H    5.920977   6.183975   5.468815   4.054697   3.539328
    27  H    5.897757   5.504820   4.447493   2.946589   2.196922
    28  C    5.539656   4.652517   3.143246   2.533494   1.539384
    29  H    6.341081   5.544859   3.995220   3.483473   2.202816
    30  H    6.127662   5.147389   3.762047   2.967494   2.210967
    31  H    5.297312   4.212978   2.709060   2.683441   2.226353
    32  H    4.445265   4.137634   2.806473   2.159023   1.113235
    33  H    2.696069   2.621628   2.102344   1.107073   2.161534
    34  C    4.036593   3.193745   2.566564   1.543254   2.555215
    35  H    3.691567   2.873082   2.824961   2.229439   3.545438
    36  H    4.806656   3.689584   2.881922   2.210362   2.873348
    37  H    4.748321   4.150049   3.545518   2.215622   2.790301
    38  H    3.533873   2.154002   1.115244   2.157240   3.047527
    39  C    3.138523   2.557078   1.543127   2.593883   2.983618
    40  H    2.916785   2.912135   2.208823   2.859102   3.145600
    41  H    4.211913   3.536742   2.224391   2.915740   2.746491
    42  H    3.393909   2.769413   2.217048   3.568315   4.062716
    43  H    2.145885   1.115185   2.176962   2.763160   4.301819
    44  C    2.501071   1.542489   2.577871   3.962953   5.227601
    45  H    3.493709   2.215044   2.774098   4.184735   5.349151
    46  H    2.777907   2.199645   3.536754   4.763822   6.144180
    47  H    2.738734   2.215760   2.971438   4.445877   5.519839
    48  H    1.113271   2.212651   2.923019   3.676735   4.695867
    49  H    1.115029   2.196277   3.578057   4.232632   5.598253
    50  H    1.114683   2.232835   2.962411   3.004093   4.232168
                    6          7          8          9         10
     6  C    0.000000
     7  C    1.571804   0.000000
     8  C    2.654402   1.558237   0.000000
     9  C    4.011711   2.605711   1.543084   0.000000
    10  H    4.815879   3.561152   2.201944   1.114763   0.000000
    11  H    4.509483   2.996663   2.228167   1.111874   1.778860
    12  H    4.222984   2.828810   2.214364   1.113864   1.789089
    13  H    2.814782   2.180569   1.113401   2.092330   2.384009
    14  C    3.287416   2.582691   1.539614   2.510720   2.785615
    15  H    2.932141   2.783959   2.218420   3.503632   3.831571
    16  H    3.862877   2.963428   2.207558   2.742401   3.108497
    17  H    4.201034   3.542607   2.200451   2.797749   2.609178
    18  C    2.590710   1.545785   2.522867   3.139604   4.169999
    19  H    2.987528   2.243898   3.502164   4.004182   5.089546
    20  H    3.564822   2.218186   2.657586   2.709131   3.715970
    21  H    2.797383   2.214892   2.950603   3.784351   4.681401
    22  H    2.164437   1.115345   2.135436   2.686120   3.680205
    23  C    1.549430   2.592869   2.910822   4.340716   4.850001
    24  H    2.208174   2.909739   3.115610   4.303394   4.748415
    25  H    2.237382   3.575637   3.973065   5.434996   5.909077
    26  H    2.241167   2.869966   2.626989   4.080272   4.391396
    27  H    1.114095   2.170759   3.121317   4.537496   5.317261
    28  C    2.606493   3.118697   4.666136   5.568302   6.598122
    29  H    2.965481   2.898132   4.418752   5.037239   6.115054
    30  H    2.838365   3.370506   4.876996   5.852071   6.882178
    31  H    3.584126   4.180992   5.717859   6.569729   7.600514
    32  H    2.115823   2.781471   3.981838   4.919629   5.772489
    33  H    2.816975   4.272465   5.199140   6.518984   7.190878
    34  C    3.196760   4.649514   5.819291   7.195623   8.002012
    35  H    4.177317   5.685912   6.767951   8.185844   8.938573
    36  H    3.657969   4.906625   6.225162   7.506244   8.402294
    37  H    2.836110   4.281479   5.276246   6.728500   7.469764
    38  H    4.514331   5.640422   7.029360   8.112684   9.025566
    39  C    4.430658   5.311437   6.521070   7.403945   8.228362
    40  H    4.344985   5.186965   6.191671   7.049399   7.766767
    41  H    4.212799   4.817677   6.115811   6.849485   7.747822
    42  H    5.536397   6.377607   7.594757   8.411875   9.236629
    43  H    5.345565   6.807377   7.913669   9.224440   9.963824
    44  C    6.573318   7.831604   9.025588  10.143516  10.926231
    45  H    6.776976   7.976132   9.287591  10.376306  11.234569
    46  H    7.395473   8.733402   9.869265  11.048054  11.790049
    47  H    6.906762   8.041754   9.200584  10.205220  10.968178
    48  H    5.678477   6.861519   7.686080   8.752965   9.328208
    49  H    6.484409   7.872897   8.696290   9.929142  10.489825
    50  H    4.877522   6.271801   6.991444   8.265662   8.792753
                   11         12         13         14         15
    11  H    0.000000
    12  H    1.797917   0.000000
    13  H    3.062007   2.487607   0.000000
    14  C    2.773557   3.500121   2.172742   0.000000
    15  H    3.798727   4.390870   2.633526   1.112918   0.000000
    16  H    2.536673   3.778173   3.105665   1.113270   1.788128
    17  H    3.154158   3.828462   2.450915   1.114848   1.796596
    18  C    2.952396   3.486618   3.482941   2.989270   3.216949
    19  H    3.774018   4.118256   4.366257   4.089455   4.231114
    20  H    2.176779   3.091325   3.719771   3.094219   3.637964
    21  H    3.535401   4.353400   3.911748   2.844869   2.799562
    22  H    3.173016   2.443287   2.487583   3.489374   3.823351
    23  C    5.097932   4.586436   2.496088   3.430487   2.971031
    24  H    5.206734   4.316740   2.416654   3.985747   3.775869
    25  H    6.164767   5.696197   3.553350   4.273749   3.595426
    26  H    4.839824   4.548308   2.154182   2.757004   2.247610
    27  H    4.856443   4.946222   3.472519   3.249050   2.621515
    28  C    5.774844   5.439214   5.039246   5.463305   5.234116
    29  H    5.156957   4.781263   4.889136   5.380383   5.377473
    30  H    5.912813   5.906674   5.401397   5.383174   5.043918
    31  H    6.788878   6.335707   6.014731   6.561553   6.306507
    32  H    5.518654   4.626700   3.880158   5.095224   4.952461
    33  H    7.191070   6.506345   4.888348   5.819109   5.232882
    34  C    7.589821   7.352844   5.890347   6.103120   5.350252
    35  H    8.625795   8.351108   6.742458   6.982258   6.150537
    36  H    7.760985   7.642385   6.463055   6.508424   5.814677
    37  H    7.093791   7.044712   5.395400   5.320428   4.464464
    38  H    8.530459   7.905335   7.042176   7.782257   7.297662
    39  C    8.002643   6.968615   6.304333   7.595345   7.325633
    40  H    7.773310   6.583225   5.801358   7.325608   7.103769
    41  H    7.352813   6.348621   6.039122   7.271567   7.122542
    42  H    8.998918   7.907018   7.366274   8.698356   8.436877
    43  H    9.798175   9.167076   7.692124   8.426807   7.715747
    44  C   10.738902   9.861789   8.765098   9.809269   9.258696
    45  H   10.872000  10.097239   9.154521  10.052396   9.508157
    46  H   11.670358  10.809935   9.561624  10.571137   9.950326
    47  H   10.844172   9.811085   8.878671  10.124549   9.672898
    48  H    9.568828   8.436782   7.121585   8.574275   8.130475
    49  H   10.710368   9.762618   8.166764   9.344526   8.715882
    50  H    9.063762   8.179059   6.443452   7.601630   6.985434
                   16         17         18         19         20
    16  H    0.000000
    17  H    1.791734   0.000000
    18  C    2.775557   4.058984   0.000000
    19  H    3.854867   5.163596   1.109257   0.000000
    20  H    2.628746   4.025707   1.111621   1.744639   0.000000
    21  H    2.474498   3.937142   1.114236   1.784591   1.797768
    22  H    3.873550   4.321463   2.171503   2.490781   2.614532
    23  C    4.332752   4.010365   3.905074   4.472202   4.726903
    24  H    4.937874   4.438304   4.398765   4.905901   5.108346
    25  H    5.152404   4.804772   4.739239   5.209158   5.651228
    26  H    3.769639   3.132489   4.094855   4.874725   4.773384
    27  H    3.657129   4.221174   2.616614   3.032861   3.656266
    28  C    5.666487   6.502612   3.196155   2.581168   4.144037
    29  H    5.489431   6.409597   2.823089   2.057674   3.561478
    30  H    5.437517   6.470685   3.050190   2.408022   4.044242
    31  H    6.776025   7.588542   4.261127   3.529858   5.155908
    32  H    5.671559   5.920200   3.799072   3.698242   4.641473
    33  H    6.551856   6.525626   5.282846   5.341245   6.299746
    34  C    6.546960   6.987757   5.061730   4.921221   6.172552
    35  H    7.476599   7.796824   6.152386   6.030076   7.263054
    36  H    6.785219   7.482316   5.005284   4.656303   6.098010
    37  H    5.754435   6.171411   4.657532   4.722779   5.752470
    38  H    8.210069   8.709488   6.074331   5.559095   7.081985
    39  C    8.178467   8.397220   6.132713   5.749523   6.999602
    40  H    8.023760   8.016094   6.243420   6.034225   7.060387
    41  H    7.747679   8.129085   5.489785   4.994657   6.276753
    42  H    9.267221   9.497628   7.139975   6.672866   7.978878
    43  H    9.040355   9.189021   7.498998   7.270694   8.578628
    44  C   10.418273  10.592465   8.544049   8.144969   9.549640
    45  H   10.557845  10.913771   8.500339   7.977656   9.501662
    46  H   11.213308  11.313997   9.470627   9.116143  10.501421
    47  H   10.765471  10.877810   8.837335   8.427602   9.781814
    48  H    9.401422   9.139680   8.003083   7.916438   8.919594
    49  H   10.162845   9.901428   8.917422   8.848960   9.921594
    50  H    8.453096   8.132017   7.400494   7.471336   8.384266
                   21         22         23         24         25
    21  H    0.000000
    22  H    3.108518   0.000000
    23  C    4.038931   3.054880   0.000000
    24  H    4.766269   2.983038   1.114219   0.000000
    25  H    4.715799   4.050452   1.110897   1.804323   0.000000
    26  H    4.081202   3.528361   1.109910   1.804238   1.716653
    27  H    2.363018   3.029097   2.143001   3.088529   2.494733
    28  C    3.608345   3.040154   3.939457   4.243839   4.279824
    29  H    3.517199   2.559277   4.348826   4.508976   4.913592
    30  H    3.142789   3.606656   4.265563   4.811873   4.523469
    31  H    4.670846   3.960232   4.758965   4.956274   4.951996
    32  H    4.407324   2.374181   2.717565   2.509762   3.177784
    33  H    5.427148   4.391773   2.562883   2.733791   2.015429
    34  C    4.883156   5.041152   3.670943   4.323337   3.151488
    35  H    5.921920   6.071700   4.372218   4.979078   3.622666
    36  H    4.803508   5.268019   4.475145   5.130772   4.126373
    37  H    4.294395   4.896588   3.234811   4.109514   2.716004
    38  H    6.308667   5.502619   5.128581   5.270007   4.852960
    39  C    6.666721   4.829950   4.746712   4.423526   4.702095
    40  H    6.822795   4.659160   4.342341   3.802177   4.335682
    41  H    6.134165   4.215574   4.822552   4.518877   5.003387
    42  H    7.692951   5.834811   5.837393   5.469556   5.740803
    43  H    7.518658   6.884835   5.325894   5.529146   4.574325
    44  C    8.786136   7.617583   6.651177   6.562072   6.100083
    45  H    8.721026   7.769480   7.090824   7.095250   6.602358
    46  H    9.640780   8.583481   7.340472   7.282930   6.665201
    47  H    9.205485   7.681544   6.944255   6.680143   6.503706
    48  H    8.365124   6.577691   5.193709   4.755614   4.700991
    49  H    9.080541   7.795041   5.935524   5.760350   5.153938
    50  H    7.550156   6.282089   4.186877   4.048780   3.405179
                   26         27         28         29         30
    26  H    0.000000
    27  H    2.529614   0.000000
    28  C    4.822419   2.881668   0.000000
    29  H    5.150315   3.401382   1.110390   0.000000
    30  H    5.006850   2.670459   1.113674   1.819109   0.000000
    31  H    5.727595   3.863438   1.110170   1.744981   1.780471
    32  H    3.748089   3.050601   2.145905   2.393073   3.086506
    33  H    3.568379   3.209947   3.471469   4.303632   3.936294
    34  C    4.478562   2.902179   3.060246   4.145505   2.914513
    35  H    5.129319   3.871872   4.097326   5.194171   3.964096
    36  H    5.271605   3.267805   2.774975   3.866383   2.379424
    37  H    3.824440   2.242168   3.424784   4.413921   3.091896
    38  H    6.184919   4.741824   2.990338   3.878890   3.442076
    39  C    5.853199   5.115223   3.402106   3.876679   4.333744
    40  H    5.409595   5.171274   3.944006   4.321582   4.918717
    41  H    5.904768   4.938483   2.790113   3.018095   3.823768
    42  H    6.941479   6.194037   4.285966   4.704395   5.185321
    43  H    6.248285   5.424351   4.906585   5.914757   5.170326
    44  C    7.686459   6.893174   5.587641   6.399606   6.109239
    45  H    8.141707   7.011237   5.401444   6.209220   5.828287
    46  H    8.320989   7.645400   6.578769   7.440915   7.021589
    47  H    8.004491   7.380310   5.896758   6.564796   6.575931
    48  H    6.140492   6.291047   5.707753   6.355175   6.457681
    49  H    6.783071   6.840798   6.574993   7.413199   7.098883
    50  H    5.011381   5.272696   5.452607   6.262608   5.970831
                   31         32         33         34         35
    31  H    0.000000
    32  H    2.621869   0.000000
    33  H    3.715303   2.453696   0.000000
    34  C    3.238594   3.489440   2.157212   0.000000
    35  H    4.107391   4.360460   2.522561   1.112075   0.000000
    36  H    2.791694   3.863221   3.100873   1.113493   1.785853
    37  H    3.901669   3.797725   2.536809   1.112875   1.766791
    38  H    2.269525   3.387591   2.996801   2.651159   2.924630
    39  C    2.910126   2.551218   2.931901   3.930973   4.332562
    40  H    3.712787   2.452203   2.797050   4.346567   4.731779
    41  H    2.280438   2.229994   3.469240   4.211276   4.832054
    42  H    3.589678   3.628439   3.891239   4.760074   5.008360
    43  H    4.540291   4.687099   2.817467   2.777450   2.118076
    44  C    4.890138   5.260713   4.125408   4.474515   4.091601
    45  H    4.562183   5.491825   4.610433   4.505814   4.188575
    46  H    5.918592   6.226472   4.789696   5.081856   4.480338
    47  H    5.170735   5.328088   4.541721   5.238963   4.996863
    48  H    5.441003   4.343594   3.140152   4.765850   4.607065
    49  H    6.283578   5.557340   3.678569   4.798514   4.234625
    50  H    5.432994   4.221348   2.154798   3.734607   3.437670
                   36         37         38         39         40
    36  H    0.000000
    37  H    1.798182   0.000000
    38  H    2.517197   3.722660   0.000000
    39  C    4.185857   4.787292   2.142872   0.000000
    40  H    4.823863   5.048150   3.090226   1.111863   0.000000
    41  H    4.273393   4.987787   2.472512   1.112401   1.796707
    42  H    4.915537   5.708184   2.532935   1.112063   1.801085
    43  H    3.280363   3.692380   2.481581   3.504972   3.901044
    44  C    4.707257   5.514403   2.705207   3.096923   3.629238
    45  H    4.468750   5.604491   2.432216   3.359280   4.152308
    46  H    5.373033   6.066121   3.676609   4.156436   4.564090
    47  H    5.493485   6.261032   3.228367   2.909082   3.313583
    48  H    5.487438   5.476483   3.890477   2.846243   2.361572
    49  H    5.553692   5.489241   4.343629   4.135168   3.947804
    50  H    4.682407   4.214303   3.953407   3.597772   3.213478
                   41         42         43         44         45
    41  H    0.000000
    42  H    1.752238   0.000000
    43  H    4.368177   3.794766   0.000000
    44  C    4.032643   2.711278   2.123472   0.000000
    45  H    4.070536   2.914836   2.542211   1.113694   0.000000
    46  H    5.130053   3.767531   2.401648   1.115122   1.790337
    47  H    3.846612   2.219404   3.076548   1.112859   1.804013
    48  H    3.915985   2.973452   3.098105   2.829227   3.839965
    49  H    5.232322   4.202599   2.491990   2.682994   3.740917
    50  H    4.557219   4.123837   2.515932   3.499613   4.397639
                   46         47         48         49         50
    46  H    0.000000
    47  H    1.786778   0.000000
    48  H    3.247420   2.610231   0.000000
    49  H    2.490817   2.961747   1.789461   0.000000
    50  H    3.761637   3.819637   1.804272   1.774806   0.000000
 Stoichiometry    C16H34
 Framework group  C1[X(C16H34)]
 Deg. of freedom   144
 Full point group                 C1      NOp   1
 Largest Abelian subgroup         C1      NOp   1
 Largest concise Abelian subgroup C1      NOp   1
                         Standard orientation:                         
 ---------------------------------------------------------------------
 Center     Atomic      Atomic             Coordinates (Angstroms)
 Number     Number       Type             X           Y           Z
 ---------------------------------------------------------------------
      1          6           0        3.866203   -1.841840   -0.440509
      2          6           0        3.919467   -0.423350    0.159455
      3          6           0        2.690349    0.486434   -0.141261
      4          6           0        1.378945   -0.011913    0.542708
      5          6           0        0.039714    0.547990   -0.034183
      6          6           0       -1.272892   -0.188907    0.411024
      7          6           0       -2.577467    0.363374   -0.269886
      8          6           0       -3.724626   -0.668835   -0.485927
      9          6           0       -4.805035   -0.217146   -1.490816
     10          1           0       -5.495575   -1.057384   -1.735459
     11          1           0       -5.445919    0.604454   -1.102868
     12          1           0       -4.360234    0.124436   -2.453192
     13          1           0       -3.294460   -1.570701   -0.977106
     14          6           0       -4.405796   -1.093473    0.827885
     15          1           0       -3.672443   -1.361976    1.620782
     16          1           0       -5.044581   -0.280344    1.240372
     17          1           0       -5.065261   -1.977969    0.667699
     18          6           0       -3.150410    1.595341    0.467301
     19          1           0       -2.540486    2.515940    0.362703
     20          1           0       -4.144822    1.895465    0.071357
     21          1           0       -3.262787    1.406778    1.559701
     22          1           0       -2.279742    0.677765   -1.297754
     23          6           0       -1.092391   -1.711788    0.189702
     24          1           0       -0.907757   -1.938749   -0.885418
     25          1           0       -0.265082   -2.150715    0.787192
     26          1           0       -1.954426   -2.320402    0.533773
     27          1           0       -1.404474   -0.051968    1.508813
     28          6           0       -0.005568    2.074652    0.158052
     29          1           0       -0.702417    2.553884   -0.561464
     30          1           0       -0.287977    2.353958    1.198486
     31          1           0        0.965008    2.572911   -0.047373
     32          1           0        0.067280    0.360770   -1.131215
     33          1           0        1.392014   -1.098378    0.330493
     34          6           0        1.433362    0.171144    2.074101
     35          1           0        2.317742   -0.314168    2.542134
     36          1           0        1.471435    1.247467    2.356849
     37          1           0        0.551668   -0.281434    2.580342
     38          1           0        2.920819    1.479068    0.311872
     39          6           0        2.536523    0.727356   -1.657683
     40          1           0        2.209876   -0.194312   -2.186898
     41          1           0        1.805181    1.531548   -1.894009
     42          1           0        3.482097    1.079104   -2.125493
     43          1           0        3.991829   -0.546223    1.265486
     44          6           0        5.253011    0.231314   -0.255695
     45          1           0        5.336683    1.278382    0.114389
     46          1           0        6.117197   -0.331974    0.167845
     47          1           0        5.389086    0.240400   -1.360166
     48          1           0        3.799497   -1.821121   -1.551587
     49          1           0        4.790089   -2.410437   -0.182789
     50          1           0        3.020618   -2.456189   -0.053109
 ---------------------------------------------------------------------
 Rotational constants (GHZ):           1.0557863           0.2090434           0.2026264
 Standard basis: 6-31G(d) (6D, 7F)
 There are   308 symmetry adapted cartesian basis functions of A   symmetry.
 There are   308 symmetry adapted basis functions of A   symmetry.
   308 basis functions,   584 primitive gaussians,   308 cartesian basis functions
    65 alpha electrons       65 beta electrons
       nuclear repulsion energy      1237.1128177157 Hartrees.
 NAtoms=   50 NActive=   50 NUniq=   50 SFac= 1.00D+00 NAtFMM=   60 NAOKFM=F Big=F
 Integral buffers will be    131072 words long.
 Raffenetti 2 integral format.
 Two-electron integral symmetry is turned on.
 One-electron integrals computed using PRISM.
 NBasis=   308 RedAO= T EigKep=  2.36D-03  NBF=   308
 NBsUse=   308 1.00D-06 EigRej= -1.00D+00 NBFU=   308
 ExpMin= 1.61D-01 ExpMax= 3.05D+03 ExpMxC= 4.57D+02 IAcc=3 IRadAn=         5 AccDes= 0.00D+00
 Harris functional with IExCor= 1009 and IRadAn=       5 diagonalized for initial guess.
 HarFok:  IExCor= 1009 AccDes= 0.00D+00 IRadAn=         5 IDoV= 1 UseB2=F ITyADJ=14
 ICtDFT=  3500011 ScaDFX=  1.000000  1.000000  1.000000  1.000000
 FoFCou: FMM=F IPFlag=           0 FMFlag=      100000 FMFlg1=           0
         NFxFlg=           0 DoJE=T BraDBF=F KetDBF=T FulRan=T
         wScrn=  0.000000 ICntrl=       500 IOpCl=  0 I1Cent=   200000004 NGrid=           0
         NMat0=    1 NMatS0=      1 NMatT0=    0 NMatD0=    1 NMtDS0=    0 NMtDT0=    0
 Petite list used in FoFCou.
 Requested convergence on RMS density matrix=1.00D-08 within 128 cycles.
 Requested convergence on MAX density matrix=1.00D-06.
 Requested convergence on             energy=1.00D-06.
 No special actions if energy rises.
 Integral accuracy reduced to 1.0D-05 until final iterations.
 Initial convergence to 1.0D-05 achieved.  Increase integral accuracy.
 SCF Done:  E(RPBE-PBE) =  -629.250283808     A.U. after   12 cycles
            NFock= 12  Conv=0.87D-08     -V/T= 2.0114

 **********************************************************************

            Population analysis using the SCF Density.

 **********************************************************************

 Orbital symmetries:
       Occupied  (A) (A) (A) (A) (A) (A) (A) (A) (A) (A) (A) (A)
                 (A) (A) (A) (A) (A) (A) (A) (A) (A) (A) (A) (A)
                 (A) (A) (A) (A) (A) (A) (A) (A) (A) (A) (A) (A)
                 (A) (A) (A) (A) (A) (A) (A) (A) (A) (A) (A) (A)
                 (A) (A) (A) (A) (A) (A) (A) (A) (A) (A) (A) (A)
                 (A) (A) (A) (A) (A)
       Virtual   (A) (A) (A) (A) (A) (A) (A) (A) (A) (A) (A) (A)
                 (A) (A) (A) (A) (A) (A) (A) (A) (A) (A) (A) (A)
                 (A) (A) (A) (A) (A) (A) (A) (A) (A) (A) (A) (A)
                 (A) (A) (A) (A) (A) (A) (A) (A) (A) (A) (A) (A)
                 (A) (A) (A) (A) (A) (A) (A) (A) (A) (A) (A) (A)
                 (A) (A) (A) (A) (A) (A) (A) (A) (A) (A) (A) (A)
                 (A) (A) (A) (A) (A) (A) (A) (A) (A) (A) (A) (A)
                 (A) (A) (A) (A) (A) (A) (A) (A) (A) (A) (A) (A)
                 (A) (A) (A) (A) (A) (A) (A) (A) (A) (A) (A) (A)
                 (A) (A) (A) (A) (A) (A) (A) (A) (A) (A) (A) (A)
                 (A) (A) (A) (A) (A) (A) (A) (A) (A) (A) (A) (A)
                 (A) (A) (A) (A) (A) (A) (A) (A) (A) (A) (A) (A)
                 (A) (A) (A) (A) (A) (A) (A) (A) (A) (A) (A) (A)
                 (A) (A) (A) (A) (A) (A) (A) (A) (A) (A) (A) (A)
                 (A) (A) (A) (A) (A) (A) (A) (A) (A) (A) (A) (A)
                 (A) (A) (A) (A) (A) (A) (A) (A) (A) (A) (A) (A)
                 (A) (A) (A) (A) (A) (A) (A) (A) (A) (A) (A) (A)
                 (A) (A) (A) (A) (A) (A) (A) (A) (A) (A) (A) (A)
                 (A) (A) (A) (A) (A) (A) (A) (A) (A) (A) (A) (A)
                 (A) (A) (A) (A) (A) (A) (A) (A) (A) (A) (A) (A)
                 (A) (A) (A)
 The electronic state is 1-A.
 Alpha  occ. eigenvalues --   -9.89990  -9.89967  -9.89847  -9.89729  -9.89715
 Alpha  occ. eigenvalues --   -9.89681  -9.89346  -9.88541  -9.88463  -9.88418
 Alpha  occ. eigenvalues --   -9.88319  -9.88282  -9.88281  -9.88276  -9.88143
 Alpha  occ. eigenvalues --   -9.87972  -0.75111  -0.73438  -0.70784  -0.67272
 Alpha  occ. eigenvalues --   -0.64280  -0.64009  -0.63490  -0.60241  -0.60187
 Alpha  occ. eigenvalues --   -0.56633  -0.56319  -0.55476  -0.52843  -0.48459
 Alpha  occ. eigenvalues --   -0.46532  -0.45914  -0.42264  -0.41560  -0.40053
 Alpha  occ. eigenvalues --   -0.39607  -0.38049  -0.37688  -0.37187  -0.36798
 Alpha  occ. eigenvalues --   -0.35767  -0.35388  -0.34578  -0.34322  -0.33319
 Alpha  occ. eigenvalues --   -0.32940  -0.32394  -0.32143  -0.31850  -0.31347
 Alpha  occ. eigenvalues --   -0.30928  -0.30692  -0.29996  -0.29401  -0.29079
 Alpha  occ. eigenvalues --   -0.28898  -0.28837  -0.27670  -0.26905  -0.26794
 Alpha  occ. eigenvalues --   -0.25851  -0.25291  -0.25110  -0.24127  -0.23860
 Alpha virt. eigenvalues --    0.04579   0.06113   0.06900   0.07227   0.08160
 Alpha virt. eigenvalues --    0.09422   0.09602   0.10036   0.10463   0.10772
 Alpha virt. eigenvalues --    0.11015   0.11400   0.11760   0.12186   0.12615
 Alpha virt. eigenvalues --    0.13251   0.13752   0.14027   0.14491   0.14826
 Alpha virt. eigenvalues --    0.14946   0.15414   0.15618   0.15968   0.16690
 Alpha virt. eigenvalues --    0.16889   0.17298   0.17722   0.17998   0.18479
 Alpha virt. eigenvalues --    0.19362   0.20106   0.20235   0.20673   0.20870
 Alpha virt. eigenvalues --    0.21492   0.21836   0.21894   0.23130   0.23331
 Alpha virt. eigenvalues --    0.24239   0.24985   0.25292   0.25474   0.25900
 Alpha virt. eigenvalues --    0.27335   0.27825   0.29541   0.30413   0.45763
 Alpha virt. eigenvalues --    0.45908   0.46060   0.46840   0.47543   0.47948
 Alpha virt. eigenvalues --    0.48862   0.49709   0.51028   0.51932   0.52792
 Alpha virt. eigenvalues --    0.53729   0.55560   0.56767   0.57327   0.58600
 Alpha virt. eigenvalues --    0.59148   0.60089   0.60716   0.61824   0.61959
 Alpha virt. eigenvalues --    0.62399   0.63619   0.64157   0.64815   0.65878
 Alpha virt. eigenvalues --    0.67089   0.68033   0.68308   0.70633   0.71882
 Alpha virt. eigenvalues --    0.72689   0.73555   0.74671   0.75238   0.76840
 Alpha virt. eigenvalues --    0.78200   0.79552   0.80640   0.81222   0.81624
 Alpha virt. eigenvalues --    0.82027   0.82328   0.82795   0.83162   0.83620
 Alpha virt. eigenvalues --    0.84035   0.84288   0.84799   0.85094   0.85759
 Alpha virt. eigenvalues --    0.85963   0.86326   0.86890   0.87480   0.87819
 Alpha virt. eigenvalues --    0.88340   0.89058   0.89595   0.90901   0.91304
 Alpha virt. eigenvalues --    0.92111   0.92374   0.92703   0.93317   0.94063
 Alpha virt. eigenvalues --    0.94716   0.94916   0.95645   0.96061   0.97131
 Alpha virt. eigenvalues --    0.97382   0.98669   0.99190   0.99434   1.00354
 Alpha virt. eigenvalues --    1.01309   1.03450   1.05459   1.05883   1.09125
 Alpha virt. eigenvalues --    1.10579   1.13115   1.15460   1.17906   1.23888
 Alpha virt. eigenvalues --    1.27322   1.31566   1.32974   1.34333   1.36538
 Alpha virt. eigenvalues --    1.39046   1.41840   1.44541   1.46223   1.47429
 Alpha virt. eigenvalues --    1.52293   1.52791   1.56467   1.57912   1.59623
 Alpha virt. eigenvalues --    1.62121   1.62984   1.63294   1.64222   1.66405
 Alpha virt. eigenvalues --    1.70310   1.71218   1.71900   1.72331   1.74391
 Alpha virt. eigenvalues --    1.75664   1.76036   1.76922   1.78862   1.79512
 Alpha virt. eigenvalues --    1.82715   1.83061   1.83753   1.84864   1.85638
 Alpha virt. eigenvalues --    1.90119   1.92769   1.94699   1.95771   1.96165
 Alpha virt. eigenvalues --    1.96477   1.97006   1.98201   1.99267   1.99564
 Alpha virt. eigenvalues --    2.00167   2.02039   2.02963   2.03760   2.04261
 Alpha virt. eigenvalues --    2.05536   2.06677   2.06829   2.07502   2.11126
 Alpha virt. eigenvalues --    2.12876   2.13888   2.14189   2.15182   2.16608
 Alpha virt. eigenvalues --    2.18132   2.18861   2.19772   2.23447   2.23678
 Alpha virt. eigenvalues --    2.24639   2.25805   2.26940   2.28505   2.30080
 Alpha virt. eigenvalues --    2.31115   2.31698   2.35473   2.37430   2.37507
 Alpha virt. eigenvalues --    2.41568   2.42870   2.48063   2.50210   2.51650
 Alpha virt. eigenvalues --    2.52581   2.54199   2.55396   2.58641   2.64009
 Alpha virt. eigenvalues --    2.65434   2.69762   2.71952   2.72720   2.79128
 Alpha virt. eigenvalues --    2.79978   2.82527   4.00453   4.05393   4.10934
 Alpha virt. eigenvalues --    4.15900   4.18691   4.19478   4.20304   4.21898
 Alpha virt. eigenvalues --    4.23089   4.32762   4.37563   4.43641   4.49147
 Alpha virt. eigenvalues --    4.52509   4.57467   4.65475
          Condensed to atoms (all electrons):
               1          2          3          4          5          6
     1  C    5.187118   0.368774  -0.040278  -0.008647   0.000186   0.000003
     2  C    0.368774   4.931400   0.379179  -0.029307   0.003213  -0.000050
     3  C   -0.040278   0.379179   4.974536   0.372307  -0.029698   0.004170
     4  C   -0.008647  -0.029307   0.372307   5.008597   0.377309  -0.033834
     5  C    0.000186   0.003213  -0.029698   0.377309   4.984207   0.376735
     6  C    0.000003  -0.000050   0.004170  -0.033834   0.376735   4.997305
     7  C   -0.000000   0.000001  -0.000046   0.003420  -0.025598   0.363420
     8  C    0.000000  -0.000000   0.000001  -0.000071   0.002212  -0.032956
     9  C    0.000000   0.000000  -0.000000   0.000001  -0.000063   0.004676
    10  H    0.000000  -0.000000   0.000000  -0.000000   0.000001  -0.000107
    11  H   -0.000000   0.000000   0.000000   0.000000  -0.000000  -0.000097
    12  H    0.000000   0.000000  -0.000000   0.000000  -0.000007   0.000003
    13  H   -0.000000  -0.000000   0.000000  -0.000004   0.000098  -0.011816
    14  C   -0.000000   0.000000   0.000000   0.000002   0.000085  -0.003672
    15  H    0.000000   0.000000  -0.000000   0.000001  -0.000002   0.003579
    16  H    0.000000  -0.000000   0.000000   0.000000  -0.000004  -0.000360
    17  H    0.000000  -0.000000   0.000000  -0.000000  -0.000000  -0.000003
    18  C    0.000000  -0.000000   0.000001  -0.000133  -0.002402  -0.036845
    19  H    0.000000  -0.000000   0.000001  -0.000012  -0.001123  -0.000158
    20  H   -0.000000   0.000000  -0.000000   0.000002   0.000000   0.003924
    21  H    0.000000  -0.000000   0.000000   0.000011  -0.000024  -0.009069
    22  H    0.000000   0.000000  -0.000013   0.000256  -0.007586  -0.052509
    23  C   -0.000056   0.000008   0.000385  -0.006423  -0.045760   0.359318
    24  H    0.000004  -0.000002  -0.000111  -0.001371  -0.005770  -0.034519
    25  H   -0.000060   0.000008   0.000045  -0.000683  -0.007185  -0.023923
    26  H    0.000000  -0.000000  -0.000005   0.000512   0.004479  -0.024037
    27  H   -0.000000  -0.000001  -0.000082  -0.006965  -0.042434   0.355555
    28  C   -0.000006   0.000207  -0.006022  -0.050512   0.355818  -0.044303
    29  H    0.000000  -0.000001   0.000114   0.005140  -0.025107  -0.003728
    30  H   -0.000000  -0.000007  -0.000418  -0.004948  -0.031852  -0.006160
    31  H    0.000001  -0.000054   0.004262  -0.009500  -0.028685   0.004307
    32  H   -0.000027   0.000133  -0.012075  -0.040030   0.356792  -0.049498
    33  H    0.005947  -0.012125  -0.052630   0.359152  -0.043883  -0.009865
    34  C   -0.000194  -0.005831  -0.043138   0.362807  -0.052020  -0.005017
    35  H    0.000280   0.000698  -0.004278  -0.028081   0.005016   0.000111
    36  H    0.000015  -0.000195  -0.006809  -0.032776  -0.007928  -0.000466
    37  H   -0.000012   0.000150   0.004343  -0.029134  -0.005539   0.002307
    38  H    0.006003  -0.043230   0.358981  -0.048110  -0.004650  -0.000124
    39  C   -0.010254  -0.048480   0.360594  -0.043498  -0.005255   0.000177
    40  H    0.003253  -0.006368  -0.033380  -0.004768  -0.002315  -0.000125
    41  H    0.000150   0.005034  -0.024492  -0.005830  -0.000011   0.000116
    42  H   -0.000618  -0.006355  -0.028618   0.004299   0.000525  -0.000005
    43  H   -0.048705   0.371286  -0.044941  -0.006012   0.000099  -0.000001
    44  C   -0.060742   0.366406  -0.040303   0.004031  -0.000100   0.000001
    45  H    0.005680  -0.030837  -0.004185   0.000057  -0.000001  -0.000000
    46  H   -0.002997  -0.026671   0.004320  -0.000107   0.000001  -0.000000
    47  H   -0.006341  -0.033019  -0.005798  -0.000008   0.000001  -0.000000
    48  H    0.367224  -0.032976  -0.007722  -0.000077  -0.000025   0.000000
    49  H    0.364322  -0.029781   0.004471   0.000248  -0.000000  -0.000000
    50  H    0.360360  -0.028285  -0.003201  -0.000409  -0.000105   0.000006
               7          8          9         10         11         12
     1  C   -0.000000   0.000000   0.000000   0.000000  -0.000000   0.000000
     2  C    0.000001  -0.000000   0.000000  -0.000000   0.000000   0.000000
     3  C   -0.000046   0.000001  -0.000000   0.000000   0.000000  -0.000000
     4  C    0.003420  -0.000071   0.000001  -0.000000   0.000000   0.000000
     5  C   -0.025598   0.002212  -0.000063   0.000001  -0.000000  -0.000007
     6  C    0.363420  -0.032956   0.004676  -0.000107  -0.000097   0.000003
     7  C    4.963920   0.390899  -0.038023   0.004093  -0.005027  -0.004566
     8  C    0.390899   4.929805   0.365669  -0.027659  -0.031067  -0.030156
     9  C   -0.038023   0.365669   5.195657   0.363321   0.362811   0.361027
    10  H    0.004093  -0.027659   0.363321   0.574340  -0.032312  -0.029946
    11  H   -0.005027  -0.031067   0.362811  -0.032312   0.571208  -0.030351
    12  H   -0.004566  -0.030156   0.361027  -0.029946  -0.030351   0.573687
    13  H   -0.040970   0.371336  -0.051664  -0.005528   0.005990  -0.002412
    14  C   -0.047207   0.368224  -0.059157  -0.002263  -0.007101   0.005588
    15  H   -0.005436  -0.032451   0.005506  -0.000041  -0.000017  -0.000191
    16  H   -0.007178  -0.031911  -0.007579  -0.000282   0.006143   0.000061
    17  H    0.005050  -0.027861  -0.002336   0.003767  -0.000387  -0.000073
    18  C    0.363764  -0.051004  -0.008287   0.000165   0.001079  -0.000101
    19  H   -0.025689   0.005155   0.000114   0.000001  -0.000184  -0.000044
    20  H   -0.033330  -0.007142   0.002751  -0.000183   0.006843   0.000190
    21  H   -0.031334  -0.006369   0.000034  -0.000011   0.000056   0.000023
    22  H    0.358627  -0.046368  -0.007647   0.000048  -0.000262   0.007285
    23  C   -0.045245  -0.005702   0.000250   0.000003   0.000002   0.000020
    24  H   -0.004155  -0.002268  -0.000079   0.000006  -0.000002   0.000010
    25  H    0.004437   0.000678  -0.000010  -0.000000   0.000000  -0.000000
    26  H   -0.007440  -0.000263   0.000163   0.000009  -0.000005  -0.000000
    27  H   -0.046869  -0.002423  -0.000108   0.000004  -0.000002   0.000001
    28  C   -0.002889   0.000121   0.000004  -0.000000   0.000000  -0.000001
    29  H    0.003867  -0.000021  -0.000002   0.000000   0.000000   0.000001
    30  H   -0.001733  -0.000018  -0.000000   0.000000   0.000000   0.000000
    31  H   -0.000011   0.000001  -0.000000   0.000000  -0.000000  -0.000000
    32  H   -0.008763  -0.000025  -0.000027   0.000000   0.000000   0.000001
    33  H    0.000073   0.000001   0.000000  -0.000000  -0.000000   0.000000
[...]
 -0.00000651,0.00000516,-0.00002197,0.00000332,-0.00000854,0.00001809,0
 .00002227,0.00002677,0.00002705,-0.00000945,-0.00001753,-0.00012450,0.
 00003937,0.00004563,0.00000736,-0.00000414,0.00003085,0.00009692,-0.00
 028398,0.00015058,-0.00024635,0.00022832,-0.00013804,0.00003866,0.0000
 3159,0.00003853,-0.00018327,0.00001067,-0.00003925,-0.00010106,0.00000
 582,0.00005638,0.00026551,-0.00039248,-0.00004963,0.00007280,0.0001659
 3,0.00000309,0.00012045,0.00045951,0.00009761,-0.00037359,0.00121286,-
 0.00004473,-0.00328630,-0.00376682,0.00243436,0.06002081,-0.20986946,-
 0.10353808,-0.00186964,0.00455684,0.00303043,0.00065575,-0.00271322,-0
 .00146349,-0.06512156,0.23116610,-0.00078258,0.00083970,0.00157375,-0.
 00422512,0.00850107,0.00460519,0.00017102,-0.00063797,-0.00012583,-0.0
 0016161,0.00009004,0.00012402,0.00003855,-0.00006075,-0.00002850,-0.00
 002274,0.00001853,0.00000806,0.00000043,-0.00001291,0.00000107,0.00000
 018,0.00000053,-0.00000116,-0.00000060,-0.00000389,0.00000055,-0.00000
 063,0.00000041,0.00000019,-0.00000014,0.00000030,-0.00000026,-0.000000
 18,0.00000259,-0.00000014,0.00000097,-0.00000119,0.00000015,-0.0000000
 6,-0.00000054,-0.00000045,-0.00000136,0.00000217,0.00000016,-0.0000001
 3,0.00000016,-0.00000026,0.00000033,-0.00000001,0.00000032,-0.00000170
 ,0.00000213,-0.00000058,0.00000070,-0.00000128,0.00000040,-0.00000181,
 -0.00000081,-0.00000101,0.00000044,0.00000194,0.00000003,-0.00000245,0
 .00000424,-0.00000179,0.00000831,-0.00000440,-0.00000327,0.00000179,-0
 .00000140,0.00000315,-0.00000517,0.00000706,0.00000105,-0.00000242,0.0
 0000071,-0.00000051,0.00000735,0.00000920,-0.00000429,-0.00003054,0.00
 000573,0.00000366,-0.00001000,-0.00000397,-0.00000261,0.00000714,0.000
 01716,0.00000708,0.00001877,-0.00001633,-0.00001490,-0.00003770,0.0000
 0837,0.00002713,-0.00000993,-0.00001599,0.00000140,0.00000730,0.000107
 81,-0.00007473,0.00003262,-0.00002754,0.00003279,0.00001265,0.00000860
 ,0.00002705,0.00002726,-0.00000827,0.00002802,0.00010419,-0.00003483,0
 .00008068,0.00028502,-0.00040904,-0.00008720,0.00017598,0.00019063,-0.
 00004087,0.00000506,0.00014107,-0.00001416,0.00027794,0.00041123,0.000
 40874,0.00083853,0.00235514,0.00017872,0.03705031,-0.10328281,-0.11085
 735,0.01013875,-0.02508874,-0.01433976,-0.00156521,0.00456147,0.001592
 22,-0.04253856,0.11299163,0.11665208,-0.08272001,0.07327243,0.05196118
 ,0.00203579,-0.00518462,-0.00279405,0.00038473,-0.00070334,-0.00011878
 ,-0.00013328,-0.00008780,-0.00002351,-0.00001109,-0.00001810,-0.000030
 14,-0.00001036,-0.00000699,0.00001277,-0.00000779,0.00000387,-0.000003
 49,-0.00000230,-0.00000219,0.00000652,-0.00000004,0.00000105,-0.000003
 21,0.00000450,0.00000068,-0.00000317,0.00000040,0.00000058,0.00000235,
 -0.00000245,0.00000149,0.00000044,-0.00000152,0.00000037,0.00000249,0.
 00000164,-0.00000063,-0.00000089,-0.00000068,-0.00000353,0.00000069,0.
 00000128,0.00000065,0.00000203,0.00000281,0.00000219,-0.00000357,0.000
 00186,0.00000007,-0.00000198,-0.00000249,-0.00000294,-0.00000507,0.000
 00615,0.00000072,0.00000268,-0.00000027,0.00000305,0.00000018,-0.00000
 506,0.00000385,-0.00000055,0.00002538,-0.00000454,-0.00001469,-0.00001
 665,0.00000057,0.00001157,0.00000776,-0.00000318,0.00000289,0.00000226
 ,0.00001301,0.00000002,0.00000404,0.00001390,0.00000381,0.00000075,-0.
 00000644,0.00000127,0.00001062,0.00000663,0.00000311,-0.00000050,0.000
 01106,0.00001309,-0.00000402,0.00001568,-0.00002769,-0.00004460,-0.000
 00141,0.00001207,0.00010290,-0.00007300,0.00002555,0.00008895,0.000075
 19,-0.00001253,-0.00002893,0.00009588,0.00010764,-0.00004387,0.0000076
 3,0.00000469,-0.00001273,0.00002170,0.00001429,0.00003002,0.00014529,0
 .00023137,-0.00034513,0.00023862,-0.00039885,-0.00118127,0.00041549,-0
 .00030690,0.00005503,-0.00016573,0.00005523,-0.00000509,0.00002291,0.0
 0004444,0.00062803,-0.00017891,-0.00139600,-0.00013747,0.00039714,0.00
 034121,-0.00002338,-0.00024680,-0.00009520,-0.00004413,0.00014044,0.00
 005054,0.00017333,-0.00021580,0.00028380,0.08767148,0.07305143,-0.1888
 9544,-0.10015441,-0.00295140,0.00280174,0.00157895,0.00072057,-0.00009
 892,-0.00038781,-0.00016818,-0.00006486,-0.00011489,0.00007975,-0.0000
 2704,-0.00008860,-0.00003009,0.00003111,-0.00000401,0.00000310,-0.0000
 1095,0.00000952,-0.00000623,-0.00000055,-0.00002072,-0.00000172,-0.000
 00627,0.00000572,-0.00000598,-0.00000086,0.00000201,0.00000225,0.00000
 204,0.00000141,-0.00000026,0.00000346,-0.00000365,0.00000310,-0.000001
 20,0.00000602,0.00000141,-0.00000002,0.00000386,-0.00000132,0.00000343
 ,-0.00000217,0.00000156,0.00000179,0.00000071,-0.00000355,-0.00000261,
 0.00000257,-0.00000390,0.00000006,0.00000144,0.00000156,0.00000040,0.0
 0000627,-0.00000468,-0.00000041,-0.00000321,0.00000179,0.00000158,-0.0
 0000044,-0.00000205,0.00000393,-0.00000403,0.00005995,-0.00005117,-0.0
 0002703,-0.00003784,0.00002325,0.00001731,0.00000483,0.00001295,-0.000
 01950,-0.00001417,0.00000949,0.00001280,0.00001463,0.00002116,0.000021
 02,-0.00006982,0.00000239,0.00000728,-0.00001681,0.00000839,-0.0000154
 5,0.00001269,0.00001308,0.00002105,0.00001386,-0.00000712,-0.00000864,
 -0.00008205,0.00002568,0.00001413,0.00013403,-0.00010725,-0.00004124,0
 .00018548,0.00006138,0.00010896,-0.00008451,0.00014451,0.00017292,-0.0
 0007673,0.00003179,-0.00002780,-0.00002873,0.00000505,-0.00000829,-0.0
 0022254,0.00003972,-0.00006588,0.00080540,0.00029939,-0.00054976,-0.00
 002224,-0.00014983,0.00066750,-0.00014798,0.00001743,0.00045128,0.0000
 2188,-0.00011133,-0.00003386,-0.00021163,0.00102188,0.00115673,-0.0004
 9209,0.00142693,0.00058589,-0.00001555,0.00011599,-0.00013988,-0.00001
 757,-0.00003384,0.00002618,0.00033164,0.00021504,-0.00044688,-0.081781
 22,0.20318458,0.05216004,-0.10060353,-0.11537668,0.01323621,-0.0246916
 3,-0.01828707,0.00125434,-0.00054801,0.00086743,-0.00008434,0.00007932
 ,-0.00012035,0.00004875,-0.00008873,0.00001265,-0.00004655,0.00000819,
 -0.00000646,-0.00000152,-0.00001532,0.00001154,-0.00000391,0.00000171,
 -0.00000643,-0.00000157,-0.00000548,0.00000260,-0.00000144,0.00000069,
 0.00000017,0.00000073,0.00000086,0.00000037,-0.00000070,0.00000294,-0.
 00000078,0.00000064,-0.00000096,0.00000275,0.,-0.00000007,0.00000102,-
 0.00000108,0.00000146,-0.00000073,0.00000085,0.00000059,0.00000018,-0.
 00000011,-0.00000017,0.00000037,-0.00000202,0.00000179,0.00000025,0.00
 000086,-0.00000220,0.00000091,-0.00000192,-0.00000017,-0.00000123,0.00
 000146,0.00000297,-0.00000034,-0.00000521,0.00000589,-0.00000220,0.000
 00611,-0.00000127,-0.00001230,-0.00000727,0.00000136,0.00001289,-0.000
 00744,-0.00000360,-0.00001107,-0.00000103,0.00000446,0.00000359,0.0000
 1053,0.00002959,0.00001058,-0.00003473,-0.00000074,0.00001277,-0.00001
 301,-0.00000063,-0.00000202,0.00001571,0.00002492,0.00001983,0.0000297
 0,-0.00000073,-0.00002083,-0.00008951,0.00001393,0.00002972,-0.0000423
 0,-0.00008178,0.00003325,0.00006036,-0.00009819,0.00007721,-0.00004021
 ,0.00019354,-0.00011335,0.00006964,0.00002899,0.00009636,-0.00013246,-
 0.00000044,0.00002143,0.00004152,0.00020015,0.00023668,-0.00017342,-0.
 00007526,0.00007035,-0.00071934,0.00007965,0.00047693,0.00003845,0.000
 17502,0.00042024,-0.00006063,0.00037152,-0.00023903,-0.00132710,0.0016
 2998,-0.00631669,-0.00021167,-0.00187831,0.00135834,-0.00033417,0.0002
 4661,0.00038677,-0.00002791,0.00008010,-0.00002950,0.00014141,0.001273
 22,0.00017244,-0.05675195,0.11083029,0.12830314,-0.29115022,0.00789995
 ,-0.04252680,-0.00523409,-0.00013684,-0.00033236,0.00149744,-0.0001554
 6,-0.00085254,0.00008822,0.00023622,0.00022943,0.00009511,-0.00002275,
 -0.00006101,-0.00001911,0.00005790,-0.00002313,0.00002056,-0.00002687,
 0.00001455,0.00000201,0.00000816,-0.00002603,-0.00000129,-0.00000826,0
 .00001123,-0.00001364,-0.00000054,0.00000862,-0.00000102,-0.00000028,-
 0.00000635,0.00000537,-0.00000264,-0.00000193,0.00000566,-0.00000379,-
 0.00000566,-0.00000504,0.00000165,0.00000374,0.00000251,0.00001194,-0.
 00000168,-0.00000437,-0.00000093,-0.00000592,-0.00000810,-0.00000630,0
 .00001003,-0.00001052,0.00000483,0.00000587,0.00000777,0.00000911,0.00
 001436,-0.00001840,-0.00000321,-0.00000975,0.00000138,-0.00000862,0.00
 000097,0.00000857,-0.00000717,-0.00000295,-0.00000894,-0.00002868,0.00
 001235,0.00002776,-0.00000073,-0.00001578,-0.00001290,0.00004779,-0.00
 001069,-0.00002741,-0.00002454,0.00000754,-0.00000213,-0.00001839,-0.0
 0000452,-0.00010209,0.00002281,0.00000495,-0.00003927,-0.00001031,-0.0
 0004001,0.00000656,-0.00002062,-0.00001474,0.00000853,-0.00004279,0.00
 005274,0.00001697,0.00000541,-0.00000316,0.00011665,0.00014265,-0.0002
 1054,-0.00011837,0.00007456,-0.00006090,-0.00000001,0.00002109,0.00001
 847,0.00003690,-0.00002619,-0.00003122,-0.00000282,-0.00006219,-0.0000
 1177,-0.00035516,0.00002407,-0.00020511,0.00009365,-0.00031110,0.00008
 058,0.00019996,-0.00002274,-0.00012763,-0.00001810,0.00003428,-0.00011
 183,0.00002162,0.00006115,0.00001500,0.00054266,-0.00029850,-0.0003261
 6,0.00050141,-0.00025002,0.00094677,0.00035212,-0.00004796,-0.00000259
 ,0.00048997,0.00045910,-0.00036955,-0.00010981,0.00005082,-0.00006653,
 -0.01122427,-0.00062057,-0.00195483,0.31579639,0.00757867,-0.04515535,
 0.00120943,0.00372944,-0.00163937,0.00012576,-0.00011304,-0.00016372,0
 .00086502,-0.00025980,-0.00008101,0.00032775,0.00015830,0.00005344,-0.
 00019631,-0.00000280,0.00002664,0.00002145,0.00000871,-0.00001071,-0.0
 0000216,0.00000081,0.00000363,-0.00000501,-0.00000053,-0.00000489,0.00
 000175,-0.00000318,0.00000028,0.00000154,-0.00000089,0.00000084,-0.000
 00113,0.00000038,0.00000090,-0.00000077,0.00000347,-0.00000283,-0.0000
 0242,-0.00000088,-0.00000061,-0.00000074,0.00000015,0.00000495,0.00000
 040,-0.00000217,0.,-0.00000128,-0.00000171,-0.00000109,0.00000192,-0.0
 0000589,0.00000367,0.00000186,0.00000132,0.00000189,0.00000124,-0.0000
 0404,-0.00000170,-0.00000395,0.00000053,-0.00000130,0.00000082,-0.0000
 0161,0.00000237,-0.00000309,0.00003161,-0.00002359,-0.00000125,0.00001
 580,-0.00000582,-0.00000517,-0.00000726,0.00004702,0.00000340,-0.00002
 269,-0.00000395,-0.00000266,0.00000201,0.00000194,-0.00000617,-0.00013
 526,-0.00001077,0.00001310,-0.00001677,0.00000769,-0.00004965,0.000010
 43,0.00000715,-0.00000136,0.00000414,0.00001630,-0.00001776,-0.0000334
 2,-0.00000439,0.00001466,0.00030473,0.00015490,-0.00036279,-0.00007314
 ,0.00014613,-0.00008104,-0.00004111,0.00000498,0.00005230,0.00003046,-
 0.00004485,-0.00005882,0.00000017,0.00000277,0.00000131,0.00030080,0.0
 0017024,0.00014100,0.00013779,0.00023958,-0.00004333,-0.00023659,-0.00
 012068,0.00019021,-0.00004101,0.00003049,0.00021708,-0.00004618,0.0000
 7368,-0.00011504,-0.00052383,0.00013183,-0.00006574,0.00099177,0.00019
 047,0.00014271,-0.00015084,-0.00006381,-0.00020690,-0.00030806,0.00011
 002,0.00033133,0.00016202,-0.00008230,0.00000406,0.02425321,-0.0007453
 4,0.00485247,-0.00827154,0.04539280,-0.04250341,0.00109834,-0.05036755
 ,-0.03245206,0.00144659,-0.00649808,0.00141634,0.00095358,-0.00621680,
 0.00045043,0.00074493,-0.00042468,0.00000270,-0.00013580,0.00007839,-0
 .00005211,0.00004896,-0.00002149,-0.00000044,-0.00002533,0.00001800,-0
 .00000376,-0.00000063,-0.00002008,-0.00000172,-0.00000419,0.00000783,-
 0.00000588,-0.00000003,0.00000308,0.00000176,0.00000040,-0.00000122,0.
 00000172,-0.00000050,-0.00000191,0.00000009,-0.00000018,0.00000408,-0.
 00000381,0.00000247,0.00000598,0.00000140,0.00000197,-0.00000193,0.000
 00080,0.00000066,-0.00000134,-0.00000310,-0.00000352,0.00000369,-0.000
 00183,0.00000062,-0.00000043,0.00000351,0.00000657,0.00001130,-0.00000
 699,-0.00000104,-0.00000233,-0.00000085,-0.00000467,0.00000165,0.00000
 882,-0.00000550,-0.00000294,-0.00002514,-0.00002975,-0.00001125,-0.000
 01069,0.00001017,0.00000652,0.00000140,-0.00000502,-0.00001133,-0.0000
 0281,-0.00000384,0.00001543,0.00000288,-0.00000635,0.00000461,-0.00004
 923,0.00008958,-0.00003476,-0.00004027,-0.00004909,0.00001336,0.000001
 02,-0.00001581,-0.00000221,0.00004360,-0.00009707,0.00008837,-0.000006
 76,0.00001399,0.00000321,-0.00000297,-0.00015028,0.00030161,-0.0001083
 6,-0.00001456,0.00007240,0.00002459,-0.00000800,0.00000831,-0.00000884
 ,0.00005776,0.00004194,0.00002752,-0.00006499,-0.00001401,-0.00196894,
 0.00003773,-0.00071759,0.00066008,-0.00034133,-0.00039580,-0.00018730,
 -0.00001285,0.00038727,-0.00010463,0.00007600,0.00027201,-0.00002688,0
 .00011941,0.00000819,0.00023812,-0.00048347,0.00118684,-0.00121214,-0.
 00058533,0.00120637,0.00025060,-0.00043107,0.00027175,0.00082803,0.000
 43332,-0.00024082,0.00016361,0.00010098,-0.00003279,0.01688339,0.00069
 097,0.00247719,0.04770316,-0.00215762,0.05765170,-0.08507021,-0.086640
 73,0.03295193,0.00138556,0.00595128,-0.00094526,0.00017379,0.00030824,
 0.00035647,-0.00053892,-0.00014828,-0.00142985,-0.00011442,0.00007457,
 0.00019485,0.00000962,-0.00004812,-0.00000313,-0.00000916,0.00002277,-
 0.00001255,-0.00000033,-0.00000578,0.00001368,0.00000102,0.00000557,-0
 .00000564,0.00000729,-0.00000021,-0.00000415,0.00000091,-0.00000024,0.
 00000296,-0.00000277,0.00000201,0.00000090,-0.00000396,0.00000209,0.00
 000423,0.00000458,-0.00000160,-0.00000105,-0.00000236,-0.00000625,0.00
 000100,0.00000270,0.00000082,0.00000264,0.00000476,0.00000351,-0.00000
 513,0.00000516,-0.00000472,-0.00000350,-0.00000350,-0.00000511,-0.0000
 0659,0.00000844,0.00000211,0.00000542,0.00000006,0.00000591,-0.0000005
 2,-0.00000548,0.00000412,0.00000159,0.00001048,0.00003698,-0.00002482,
 -0.00003696,0.00000819,0.00001676,0.00001734,-0.00006243,0.00000356,0.
 00003054,0.00001895,0.00000440,0.00000600,0.00001825,0.00001492,0.0000
 8300,-0.00000295,-0.00003805,0.00001615,-0.00000152,0.00003907,-0.0000
 0243,0.00000982,0.00002169,-0.00001268,0.00001361,-0.00001473,-0.00002
 461,-0.00000211,-0.00001029,-0.00139080,-0.00052445,-0.00054937,0.0002
 0841,-0.00005806,0.00016021,-0.00005449,0.00006325,0.00012603,-0.00006
 517,0.00008889,0.00004537,-0.00002981,0.00003844,-0.00000733,0.0001196
 6,-0.00015582,0.00008931,0.00002778,0.00010633,-0.00005767,-0.00000876
 ,0.00006272,0.00006600,-0.00003652,-0.00004929,0.00003148,0.00001887,-
 0.00010989,0.00004486,0.00005753,-0.00021795,0.00035411,0.00011079,0.0
 0015920,-0.00048931,0.00049731,-0.00003697,-0.00024765,0.00046945,0.00
 020761,-0.00023972,-0.00013380,-0.00021143,-0.00002825,0.00476971,0.01
 167049,-0.00503792,-0.01145861,-0.02742248,0.01007535,0.09095887,-0.08
 654076,-0.23202377,0.06986695,-0.00035026,-0.00295541,0.00039581,-0.00
 084875,-0.00046884,0.00031328,-0.00073997,-0.00035344,0.00026216,0.000
 19063,0.00013482,-0.00033247,0.00003571,0.00002836,0.00002947,0.000018
 47,-0.00001260,-0.00000866,0.00000772,0.00000625,0.00000186,0.00000075
 ,-0.00000776,0.00000161,-0.00000474,0.00000036,0.00000374,-0.00000431,
 -0.00000039,-0.00000550,0.00000207,0.00000219,0.00000045,0.00000657,-0
 .00000651,-0.00001111,-0.00000054,-0.00000266,-0.00000382,-0.00000198,
 0.00001211,0.00000305,-0.00000689,-0.00000149,-0.00000522,-0.00000082,
 -0.00000131,0.00000392,-0.00001140,0.00000604,0.00000514,0.00000517,0.
 00000358,0.00000023,-0.00001103,-0.00000384,-0.00000730,0.00000105,-0.
 00000160,0.00000144,-0.00000320,0.00000382,-0.00000335,0.00000525,0.00
 002661,0.00000705,0.00006291,-0.00002633,-0.00002134,0.00000081,0.0000
 6331,0.00002871,-0.00001673,-0.00002175,-0.00001118,-0.00000373,-0.000
 00499,-0.00002360,-0.00020406,-0.00002977,0.00001813,-0.00002532,0.000
 01901,-0.00007782,0.00000973,-0.00000465,-0.00000665,0.00001029,0.0000
 2802,-0.00001813,-0.00001595,-0.00001588,0.00002190,-0.00000151,0.0004
 1171,-0.00077445,-0.00019397,0.00039184,-0.00012916,0.00017569,0.00001
 298,0.00022735,0.00006766,-0.00005567,-0.00007309,0.00002044,0.0000099
 9,0.00000882,0.00019476,0.00002483,-0.00004320,0.00008222,-0.00009495,
 0.00028100,0.00003015,-0.00014541,-0.00012466,0.00011621,0.00004315,-0
 .00002475,-0.00006511,0.00025436,-0.00012774,0.00015147,0.00057487,0.0
 0027699,0.00071252,0.00091240,0.00168465,-0.00044821,-0.00012968,0.000
 14047,-0.00006644,0.00000906,-0.00014476,0.00003793,0.00048056,-0.0002
 2409,-0.01047818,-0.01921464,0.00795500,0.00126702,0.00134148,-0.00129
 714,0.09683067,0.25078163,0.03320472,0.07018505,-0.07161377,0.01380031
 ,0.02718941,-0.00803684,0.00078312,0.00037839,0.00100629,-0.00033561,0
 .00024427,-0.00062761,-0.00026550,-0.00019780,0.00035227,-0.00002396,-
 0.00005556,0.00000427,-0.00002069,0.00001257,-0.00001609,0.00000174,-0
 .00000717,0.00002692,0.00000153,0.00001087,-0.00001000,0.00001232,0.00
 000047,-0.00000645,0.00000071,-0.00000064,0.00000405,-0.00000326,-0.00
 000161,0.00000262,-0.00000690,0.00000416,0.00000345,0.00000065,0.00000
 018,-0.00000320,0.00000029,-0.00001198,0.00000207,0.00000329,0.0000001
 7,0.00000369,0.00000742,0.00000512,-0.00000770,0.00000936,-0.00000248,
 -0.00000744,-0.00000723,-0.00000483,-0.00001002,0.00001602,0.00000262,
 0.00000881,-0.00000288,0.00000266,0.00000056,0.00000052,-0.00000084,0.
 00000408,-0.00005976,0.00005356,-0.00001772,0.00001308,-0.00001811,0.0
 0000384,-0.00000487,-0.00005234,0.00004162,0.00003836,0.00001119,-0.00
 000699,-0.00001227,-0.00001455,-0.00001735,0.00024779,0.00004412,-0.00
 001524,0.00004159,-0.00002610,0.00008522,-0.00002291,-0.00000325,-0.00
 001149,-0.00000549,-0.00001444,0.00000472,0.00008395,-0.00001717,-0.00
 002049,-0.00121261,-0.00041673,0.00038655,-0.00033724,-0.00021831,-0.0
 0003462,0.00030543,-0.00024750,-0.00038915,0.00015243,0.00007556,0.000
 20900,0.00004132,0.00000762,0.00006330,0.00022614,-0.00014964,0.000077
 04,-0.00018095,-0.00006760,0.00003087,-0.00009079,0.00006881,0.0000227
 5,-0.00004614,0.00004906,0.00003412,0.00010800,-0.00014524,-0.00007035
 ,0.00044042,-0.00037481,0.00123954,-0.00232914,-0.00058242,-0.00650808
 ,0.00092664,0.00194367,-0.00088010,-0.00000630,-0.00034093,0.00009799,
 -0.00022060,0.00008759,0.00010233,-0.00808907,-0.01423466,0.00542709,-
 0.00171670,-0.00513042,0.00087025,-0.03546629,-0.07804000,0.07819539\\
 0.00000039,-0.00000098,-0.00000228,-0.00000309,-0.00000227,-0.00000039
 ,0.00000019,-0.00000779,-0.00000163,0.00000819,0.00000500,0.00000057,0
 .00000189,0.00000292,-0.00000508,-0.00000216,0.00000058,-0.00000111,-0
 .00000485,-0.00000064,0.00000367,0.00000517,0.00000565,-0.00000216,-0.
 00000127,0.00000082,-0.00000007,0.00000040,0.00000124,-0.00000020,0.00
 000101,0.00000026,-0.00000050,-0.00000016,0.00000089,0.00000079,0.0000
 0004,0.00000033,0.00000043,-0.00000004,0.00000080,0.00000506,0.0000003
 4,0.00000037,0.00000063,0.00000003,0.00000085,-0.00000176,-0.00000051,
 0.00000011,-0.00000022,-0.00000128,0.00000027,0.00000276,0.00000273,0.
 00000289,-0.00000134,0.00000025,0.00000068,0.00000105,-0.00000121,-0.0
 0000043,0.00000159,0.00000020,-0.00000132,0.00000012,-0.00000305,-0.00
 000284,-0.00000056,0.00000089,0.00000023,0.00000040,-0.00000288,-0.000
 00109,0.00000057,-0.00000450,-0.00000026,0.00000127,-0.00000360,0.0000
 0091,0.00000088,0.00000165,-0.00000171,0.00000523,0.00000027,-0.000001
 36,-0.00000135,0.00000033,-0.00000040,-0.00000013,0.00000164,0.0000018
 2,-0.00000037,0.00000121,0.00000632,-0.00000019,-0.00000218,0.00000097
 ,-0.00000081,0.00000089,0.00000162,0.00000226,-0.00000220,-0.00000457,
 -0.00000030,0.00000134,-0.00000052,0.00000029,0.00000281,0.00000040,-0
 .00000011,-0.00000170,-0.00000297,-0.00000173,-0.00000158,-0.00000467,
 -0.00000033,0.00000040,-0.00000077,-0.00000078,-0.00000252,-0.00000139
 ,-0.00000089,0.00000090,-0.00000052,-0.00000056,0.00000230,0.00000328,
 -0.00000098,-0.00000080,0.00000033,0.00000072,0.00000110,-0.00000113,-
 0.00000071,0.00000006,-0.00000136,-0.00000027,0.00000176,0.00000007,-0
 .00000152,0.00000019,-0.00000057,-0.00000004,0.00000024,-0.00000039,-0
 .00000033,0.00000076,0.00000034,0.00000042\\\@


 IF YOU GIVE EVERYONE A PIECE OF YOUR MIND,
 PRETTY SOON IT WILL BE ALL GONE.
 Job cpu time:       0 days  1 hours 13 minutes  7.9 seconds.
 Elapsed time:       0 days  0 hours 18 minutes 17.4 seconds.
 File lengths (MBytes):  RWF=    549 Int=      0 D2E=      0 Chk=     11 Scr=      1
 Normal termination of Gaussian 16 at Tue Mar 22 13:38:57 2022.
