 Entering Gaussian System, Link 0=/usr/local/g16.b01/g16/g16
 Initial command:
 /usr/local/g16.b01/g16/l1.exe "/scratch/webmo-4695/392/Gau-108888.inp" -scrdir="/scratch/webmo-4695/392/"
 Entering Link 1 = /usr/local/g16.b01/g16/l1.exe PID=    108890.
  
 Copyright (c) 1988-2017, Gaussian, Inc.  All Rights Reserved.
  
 This is part of the Gaussian(R) 16 program.  It is based on
 the Gaussian(R) 09 system (copyright 2009, Gaussian, Inc.),
 the Gaussian(R) 03 system (copyright 2003, Gaussian, Inc.),
 the Gaussian(R) 98 system (copyright 1998, Gaussian, Inc.),
 the Gaussian(R) 94 system (copyright 1995, Gaussian, Inc.),
 the Gaussian 92(TM) system (copyright 1992, Gaussian, Inc.),
 the Gaussian 90(TM) system (copyright 1990, Gaussian, Inc.),
 the Gaussian 88(TM) system (copyright 1988, Gaussian, Inc.),
 the Gaussian 86(TM) system (copyright 1986, Carnegie Mellon
 University), and the Gaussian 82(TM) system (copyright 1983,
 Carnegie Mellon University). Gaussian is a federally registered
 trademark of Gaussian, Inc.
  
 This software contains proprietary and confidential information,
 including trade secrets, belonging to Gaussian, Inc.
  
 This software is provided under written license and may be
 used, copied, transmitted, or stored only in accord with that
 written license.
  
 The following legend is applicable only to US Government
 contracts under FAR:
  
                    RESTRICTED RIGHTS LEGEND
  
 Use, reproduction and disclosure by the US Government is
 subject to restrictions as set forth in subparagraphs (a)
 and (c) of the Commercial Computer Software - Restricted
 Rights clause in FAR 52.227-19.
  
 Gaussian, Inc.
 340 Quinnipiac St., Bldg. 40, Wallingford CT 06492
  
  
 ---------------------------------------------------------------
 Warning -- This program may not be used in any manner that
 competes with the business of Gaussian, Inc. or will provide
 assistance to any competitor of Gaussian, Inc.  The licensee
 of this program is prohibited from giving any competitor of
 Gaussian, Inc. access to this program.  By using this program,
 the user acknowledges that Gaussian, Inc. is engaged in the
 business of creating and licensing software in the field of
 computational chemistry and represents and warrants to the
 licensee that it is not a competitor of Gaussian, Inc. and that
 it will not use this program in any manner prohibited above.
 ---------------------------------------------------------------
  

 Cite this work as:
 Gaussian 16, Revision B.01,
 M. J. Frisch, G. W. Trucks, H. B. Schlegel, G. E. Scuseria, 
 M. A. Robb, J. R. Cheeseman, G. Scalmani, V. Barone, 
 G. A. Petersson, H. Nakatsuji, X. Li, M. Caricato, A. V. Marenich, 
 J. Bloino, B. G. Janesko, R. Gomperts, B. Mennucci, H. P. Hratchian, 
 J. V. Ortiz, A. F. Izmaylov, J. L. Sonnenberg, D. Williams-Young, 
 F. Ding, F. Lipparini, F. Egidi, J. Goings, B. Peng, A. Petrone, 
 T. Henderson, D. Ranasinghe, V. G. Zakrzewski, J. Gao, N. Rega, 
 G. Zheng, W. Liang, M. Hada, M. Ehara, K. Toyota, R. Fukuda, 
 J. Hasegawa, M. Ishida, T. Nakajima, Y. Honda, O. Kitao, H. Nakai, 
 T. Vreven, K. Throssell, J. A. Montgomery, Jr., J. E. Peralta, 
 F. Ogliaro, M. J. Bearpark, J. J. Heyd, E. N. Brothers, K. N. Kudin, 
 V. N. Staroverov, T. A. Keith, R. Kobayashi, J. Normand, 
 K. Raghavachari, A. P. Rendell, J. C. Burant, S. S. Iyengar, 
 J. Tomasi, M. Cossi, J. M. Millam, M. Klene, C. Adamo, R. Cammi, 
 J. W. Ochterski, R. L. Martin, K. Morokuma, O. Farkas, 
 J. B. Foresman, and D. J. Fox, Gaussian, Inc., Wallingford CT, 2016.
 
 ******************************************
 Gaussian 16:  EM64L-G16RevB.01 20-Dec-2017
                 9-Nov-2021 
 ******************************************
 %NProcShared=8
 Will use up to    8 processors via shared memory.
 %mem=8gb
 ------------------------------------------------
 #N PBEPBE/6-31+G(d,p) OPT FREQ Geom=Connectivity
 ------------------------------------------------
 1/18=20,19=15,26=3,38=1,57=2/1,3;
 2/9=110,12=2,17=6,18=5,40=1/2;
 3/5=1,6=6,7=111,11=2,25=1,30=1,71=1,74=1009/1,2,3;
 4//1;
 5/5=2,38=5/2;
 6/7=2,8=2,9=2,10=2,28=1/1;
 7//1,2,3,16;
 1/18=20,19=15,26=3/3(2);
 2/9=110/2;
 99//99;
 2/9=110/2;
 3/5=1,6=6,7=111,11=2,25=1,30=1,71=1,74=1009/1,2,3;
 4/5=5,16=3,69=1/1;
 5/5=2,38=5/2;
 7//1,2,3,16;
 1/18=20,19=15,26=3/3(-5);
 2/9=110/2;
 6/7=2,8=2,9=2,10=2,19=2,28=1/1;
 99/9=1/99;
 ----------
 C8H7O3N2Cl
 ----------
 Symbolic Z-matrix:
 Charge =  0 Multiplicity = 1
 C
 C                    1    B1
 N                    2    B2       1    A1
 C                    3    B3       2    A2       1    D1       0
 C                    4    B4       3    A3       2    D2       0
 C                    5    B5       4    A4       3    D3       0
 C                    6    B6       5    A5       4    D4       0
 C                    7    B7       6    A6       5    D5       0
 C                    4    B8       5    A7       6    D6       0
 H                    9    B9       4    A8       5    D7       0
 H                    8    B10      9    A9       4    D8       0
 N                    7    B11      6    A10      5    D9       0
 O                    12   B12      7    A11      6    D10      0
 O                    12   B13      7    A12      6    D11      0
 H                    6    B14      7    A13      8    D12      0
 H                    5    B15      6    A14      7    D13      0
 H                    3    B16      4    A15      5    D14      0
 O                    2    B17      1    A16      3    D15      0
 Cl                   1    B18      2    A17      3    D16      0
 H                    1    B19      2    A18      3    D17      0
 H                    1    B20      2    A19      3    D18      0
       Variables:
  B1                    1.54736                  
  B2                    1.3931                   
  B3                    1.40626                  
  B4                    1.41436                  
  B5                    1.39728                  
  B6                    1.40133                  
  B7                    1.4028                   
  B8                    1.41595                  
  B9                    1.09576                  
  B10                   1.09178                  
  B11                   1.47207                  
  B12                   1.2438                   
  B13                   1.24476                  
  B14                   1.09209                  
  B15                   1.08956                  
  B16                   1.02062                  
  B17                   1.22466                  
  B18                   1.79396                  
  B19                   1.12411                  
  B20                   1.12304                  
  A1                  111.3818                   
  A2                  128.87111                  
  A3                  123.14244                  
  A4                  119.45767                  
  A5                  119.93991                  
  A6                  121.34206                  
  A7                  119.7341                   
  A8                  119.91254                  
  A9                  121.56422                  
  A10                 119.5104                   
  A11                 117.73143                  
  A12                 117.63472                  
  A13                 119.28928                  
  A14                 120.86832                  
  A15                 114.66656                  
  A16                 124.06244                  
  A17                 111.67449                  
  A18                 109.15458                  
  A19                 110.81544                  
  D1                  174.09784                  
  D2                    3.56998                  
  D3                  179.80242                  
  D4                   -0.00785                  
  D5                   -0.23537                  
  D6                    0.24421                  
  D7                  179.79741                  
  D8                 -179.91447                  
  D9                 -179.98295                  
  D10                   0.16186                  
  D11                -179.7817                   
  D12                 179.96553                  
  D13                -179.85471                  
  D14                -179.41122                  
  D15                 178.37096                  
  D16                 169.26035                  
  D17                 -71.40763                  
  D18                  47.94432                  
 

 GradGradGradGradGradGradGradGradGradGradGradGradGradGradGradGradGradGrad
 Berny optimization.
 Initialization pass.
                           ----------------------------
                           !    Initial Parameters    !
                           ! (Angstroms and Degrees)  !
 --------------------------                            --------------------------
 ! Name  Definition              Value          Derivative Info.                !
 --------------------------------------------------------------------------------
 ! R1    R(1,2)                  1.5474         estimate D2E/DX2                !
 ! R2    R(1,19)                 1.794          estimate D2E/DX2                !
 ! R3    R(1,20)                 1.1241         estimate D2E/DX2                !
 ! R4    R(1,21)                 1.123          estimate D2E/DX2                !
 ! R5    R(2,3)                  1.3931         estimate D2E/DX2                !
 ! R6    R(2,18)                 1.2247         estimate D2E/DX2                !
 ! R7    R(3,4)                  1.4063         estimate D2E/DX2                !
 ! R8    R(3,17)                 1.0206         estimate D2E/DX2                !
 ! R9    R(4,5)                  1.4144         estimate D2E/DX2                !
 ! R10   R(4,9)                  1.4159         estimate D2E/DX2                !
 ! R11   R(5,6)                  1.3973         estimate D2E/DX2                !
 ! R12   R(5,16)                 1.0896         estimate D2E/DX2                !
 ! R13   R(6,7)                  1.4013         estimate D2E/DX2                !
 ! R14   R(6,15)                 1.0921         estimate D2E/DX2                !
 ! R15   R(7,8)                  1.4028         estimate D2E/DX2                !
 ! R16   R(7,12)                 1.4721         estimate D2E/DX2                !
 ! R17   R(8,9)                  1.393          estimate D2E/DX2                !
 ! R18   R(8,11)                 1.0918         estimate D2E/DX2                !
 ! R19   R(9,10)                 1.0958         estimate D2E/DX2                !
 ! R20   R(12,13)                1.2438         estimate D2E/DX2                !
 ! R21   R(12,14)                1.2448         estimate D2E/DX2                !
 ! A1    A(2,1,19)             111.6745         estimate D2E/DX2                !
 ! A2    A(2,1,20)             109.1546         estimate D2E/DX2                !
 ! A3    A(2,1,21)             110.8154         estimate D2E/DX2                !
 ! A4    A(19,1,20)            107.9897         estimate D2E/DX2                !
 ! A5    A(19,1,21)            108.6773         estimate D2E/DX2                !
 ! A6    A(20,1,21)            108.4341         estimate D2E/DX2                !
 ! A7    A(1,2,3)              111.3818         estimate D2E/DX2                !
 ! A8    A(1,2,18)             124.0624         estimate D2E/DX2                !
 ! A9    A(3,2,18)             124.5341         estimate D2E/DX2                !
 ! A10   A(2,3,4)              128.8711         estimate D2E/DX2                !
 ! A11   A(2,3,17)             116.4011         estimate D2E/DX2                !
 ! A12   A(4,3,17)             114.6666         estimate D2E/DX2                !
 ! A13   A(3,4,5)              123.1424         estimate D2E/DX2                !
 ! A14   A(3,4,9)              117.1221         estimate D2E/DX2                !
 ! A15   A(5,4,9)              119.7341         estimate D2E/DX2                !
 ! A16   A(4,5,6)              119.4577         estimate D2E/DX2                !
 ! A17   A(4,5,16)             119.6738         estimate D2E/DX2                !
 ! A18   A(6,5,16)             120.8683         estimate D2E/DX2                !
 ! A19   A(5,6,7)              119.9399         estimate D2E/DX2                !
 ! A20   A(5,6,15)             120.7705         estimate D2E/DX2                !
 ! A21   A(7,6,15)             119.2893         estimate D2E/DX2                !
 ! A22   A(6,7,8)              121.3421         estimate D2E/DX2                !
 ! A23   A(6,7,12)             119.5104         estimate D2E/DX2                !
 ! A24   A(8,7,12)             119.1471         estimate D2E/DX2                !
 ! A25   A(7,8,9)              118.8441         estimate D2E/DX2                !
 ! A26   A(7,8,11)             119.5916         estimate D2E/DX2                !
 ! A27   A(9,8,11)             121.5642         estimate D2E/DX2                !
 ! A28   A(4,9,8)              120.6813         estimate D2E/DX2                !
 ! A29   A(4,9,10)             119.9125         estimate D2E/DX2                !
 ! A30   A(8,9,10)             119.4062         estimate D2E/DX2                !
 ! A31   A(7,12,13)            117.7314         estimate D2E/DX2                !
 ! A32   A(7,12,14)            117.6347         estimate D2E/DX2                !
 ! A33   A(13,12,14)           124.6338         estimate D2E/DX2                !
 ! D1    D(19,1,2,3)           169.2603         estimate D2E/DX2                !
 ! D2    D(19,1,2,18)          -12.3687         estimate D2E/DX2                !
 ! D3    D(20,1,2,3)           -71.4076         estimate D2E/DX2                !
 ! D4    D(20,1,2,18)          106.9633         estimate D2E/DX2                !
 ! D5    D(21,1,2,3)            47.9443         estimate D2E/DX2                !
 ! D6    D(21,1,2,18)         -133.6847         estimate D2E/DX2                !
 ! D7    D(1,2,3,4)            174.0978         estimate D2E/DX2                !
 ! D8    D(1,2,3,17)            -2.8775         estimate D2E/DX2                !
 ! D9    D(18,2,3,4)            -4.2639         estimate D2E/DX2                !
 ! D10   D(18,2,3,17)          178.7607         estimate D2E/DX2                !
 ! D11   D(2,3,4,5)              3.57           estimate D2E/DX2                !
 ! D12   D(2,3,4,9)           -176.861          estimate D2E/DX2                !
 ! D13   D(17,3,4,5)          -179.4112         estimate D2E/DX2                !
 ! D14   D(17,3,4,9)             0.1578         estimate D2E/DX2                !
 ! D15   D(3,4,5,6)            179.8024         estimate D2E/DX2                !
 ! D16   D(3,4,5,16)            -0.3489         estimate D2E/DX2                !
 ! D17   D(9,4,5,6)              0.2442         estimate D2E/DX2                !
 ! D18   D(9,4,5,16)          -179.9071         estimate D2E/DX2                !
 ! D19   D(3,4,9,8)           -179.8306         estimate D2E/DX2                !
 ! D20   D(3,4,9,10)             0.213          estimate D2E/DX2                !
 ! D21   D(5,4,9,8)             -0.2462         estimate D2E/DX2                !
 ! D22   D(5,4,9,10)           179.7974         estimate D2E/DX2                !
 ! D23   D(4,5,6,7)             -0.0078         estimate D2E/DX2                !
 ! D24   D(4,5,6,15)           179.7882         estimate D2E/DX2                !
 ! D25   D(16,5,6,7)          -179.8547         estimate D2E/DX2                !
 ! D26   D(16,5,6,15)           -0.0586         estimate D2E/DX2                !
 ! D27   D(5,6,7,8)             -0.2354         estimate D2E/DX2                !
 ! D28   D(5,6,7,12)          -179.983          estimate D2E/DX2                !
 ! D29   D(15,6,7,8)           179.9655         estimate D2E/DX2                !
 ! D30   D(15,6,7,12)            0.2179         estimate D2E/DX2                !
 ! D31   D(6,7,8,9)              0.2339         estimate D2E/DX2                !
 ! D32   D(6,7,8,11)          -179.8416         estimate D2E/DX2                !
 ! D33   D(12,7,8,9)           179.9824         estimate D2E/DX2                !
 ! D34   D(12,7,8,11)           -0.0931         estimate D2E/DX2                !
 ! D35   D(6,7,12,13)            0.1619         estimate D2E/DX2                !
 ! D36   D(6,7,12,14)         -179.7817         estimate D2E/DX2                !
 ! D37   D(8,7,12,13)         -179.5913         estimate D2E/DX2                !
 ! D38   D(8,7,12,14)            0.4651         estimate D2E/DX2                !
 ! D39   D(7,8,9,4)              0.0085         estimate D2E/DX2                !
 ! D40   D(7,8,9,10)           179.9651         estimate D2E/DX2                !
 ! D41   D(11,8,9,4)          -179.9145         estimate D2E/DX2                !
 ! D42   D(11,8,9,10)            0.0422         estimate D2E/DX2                !
 --------------------------------------------------------------------------------
 Trust Radius=3.00D-01 FncErr=1.00D-07 GrdErr=1.00D-06 EigMax=2.50D+02 EigMin=1.00D-04
 Number of steps in this run=    106 maximum allowed number of steps=    126.
 GradGradGradGradGradGradGradGradGradGradGradGradGradGradGradGradGradGrad

                          Input orientation:                          
 ---------------------------------------------------------------------
 Center     Atomic      Atomic             Coordinates (Angstroms)
 Number     Number       Type             X           Y           Z
 ---------------------------------------------------------------------
      1          6           0        0.000000    0.000000    0.000000
      2          6           0        0.000000    0.000000    1.547363
      3          7           0        1.297212    0.000000    2.055260
      4          6           0        1.721948    0.112584    3.391108
      5          6           0        0.826840    0.177416    4.484267
      6          6           0        1.333659    0.284646    5.781963
      7          6           0        2.718730    0.326858    5.990593
      8          6           0        3.620561    0.258614    4.918259
      9          6           0        3.118159    0.151700    3.623419
     10          1           0        3.814325    0.098322    2.778910
     11          1           0        4.694184    0.291382    5.113804
     12          7           0        3.242389    0.439548    7.361748
     13          8           0        2.419633    0.490350    8.293162
     14          8           0        4.478093    0.478324    7.506483
     15          1           0        0.661996    0.339708    6.641319
     16          1           0       -0.247316    0.145707    4.304489
     17          1           0        2.052666   -0.045892    1.370537
     18          8           0       -1.014133    0.028842    2.233291
     19         17           0       -1.637916   -0.310662   -0.662567
     20          1           0        0.338562    1.006461   -0.368842
     21          1           0        0.703170   -0.779425   -0.399082
 ---------------------------------------------------------------------
                    Distance matrix (angstroms):
                    1          2          3          4          5
     1  C    0.000000
     2  C    1.547363   0.000000
     3  N    2.430402   1.393097   0.000000
     4  C    3.804917   2.525307   1.406259   0.000000
     5  C    4.563309   3.056230   2.480484   1.414362   0.000000
     6  C    5.940603   4.448765   3.737736   2.428284   1.397276
     7  C    6.586769   5.219255   4.196951   2.792277   2.422932
     8  C    6.112661   4.953613   3.696160   2.440952   2.828396
     9  C    4.782792   3.749125   2.407901   1.415946   2.447829
    10  H    4.720284   4.009420   2.620915   2.180145   3.440867
    11  H    6.947752   5.902522   4.580285   3.440034   3.919905
    12  N    8.056154   6.671833   5.668838   4.264344   3.766097
    13  O    8.652838   7.183375   6.357020   4.965844   4.140363
    14  O    8.753822   7.469486   6.329505   4.966530   4.749314
    15  H    6.682870   5.148012   4.642288   3.426216   2.169420
    16  H    4.314050   2.772028   2.732367   2.171028   1.089557
    17  H    2.468585   2.060779   1.020619   2.053581   3.353779
    18  O    2.452934   1.224661   2.318371   2.972153   2.911726
    19  Cl   1.793955   2.768225   4.012240   5.282055   5.727403
    20  H    1.124114   2.190760   2.794324   4.104874   4.947565
    21  H    1.123039   2.211470   2.642761   4.024814   4.977744
                    6          7          8          9         10
     6  C    0.000000
     7  C    1.401332   0.000000
     8  C    2.444706   1.402803   0.000000
     9  C    2.803824   2.407018   1.393000   0.000000
    10  H    3.899584   3.401097   2.154078   1.095761   0.000000
    11  H    3.426312   2.161582   1.091777   2.173617   2.502629
    12  N    2.482532   1.472068   2.479191   3.751452   4.630977
    13  O    2.743679   2.327663   3.589694   4.733827   5.701388
    14  O    3.591511   2.327278   2.735423   4.127262   4.789043
    15  H    1.092087   2.157259   3.424707   3.895613   4.991357
    16  H    2.168343   3.416605   3.917899   3.433703   4.338959
    17  H    4.481842   4.682681   3.890675   2.499960   2.260035
    18  O    4.262703   5.304752   5.361179   4.361581   4.859685
    19  Cl   7.121560   7.978179   7.689036   6.419012   6.460493
    20  H    6.272451   6.824183   6.267713   4.939122   4.776399
    21  H    6.303577   6.790750   6.153277   4.783271   4.533140
                   11         12         13         14         15
    11  H    0.000000
    12  N    2.680096   0.000000
    13  O    3.914267   1.243801   0.000000
    14  O    2.409680   1.244756   2.203694   0.000000
    15  H    4.312096   2.680935   2.416727   3.915395   0.000000
    16  H    5.009454   4.648785   4.810499   5.717769   2.515006
    17  H    4.593846   6.127455   6.953054   6.618711   5.464778
    18  O    6.399310   6.677404   6.980385   7.627132   4.726178
    19  Cl   8.592113   9.421773   9.864604  10.235304   7.685006
    20  H    7.038621   8.277416   8.923427   8.912653   7.049221
    21  H    6.889610   8.256149   8.950625   8.850420   7.128913
                   16         17         18         19         20
    16  H    0.000000
    17  H    3.732922   0.000000
    18  O    2.211680   3.186720   0.000000
    19  Cl   5.178194   4.221849   2.981671   0.000000
    20  H    4.787920   2.659142   3.091378   2.393231   0.000000
    21  H    4.887011   2.343237   3.245275   2.402051   1.822976
                   21
    21  H    0.000000
 Stoichiometry    C8H7ClN2O3
 Framework group  C1[X(C8H7ClN2O3)]
 Deg. of freedom    57
 Full point group                 C1      NOp   1
 Largest Abelian subgroup         C1      NOp   1
 Largest concise Abelian subgroup C1      NOp   1
                         Standard orientation:                         
 ---------------------------------------------------------------------
 Center     Atomic      Atomic             Coordinates (Angstroms)
 Number     Number       Type             X           Y           Z
 ---------------------------------------------------------------------
      1          6           0       -3.762814    0.735247    0.145303
      2          6           0       -2.438611   -0.058265    0.039670
      3          7           0       -1.339280    0.794792   -0.027288
      4          6           0        0.029579    0.472797   -0.016766
      5          6           0        0.511062   -0.857031   -0.004453
      6          6           0        1.888948   -1.088928    0.001291
      7          6           0        2.780203   -0.007562   -0.005324
      8          6           0        2.319744    1.317403   -0.022629
      9          6           0        0.946588    1.551623   -0.028362
     10          1           0        0.576775    2.583012   -0.041275
     11          1           0        3.039543    2.138263   -0.030018
     12          7           0        4.229972   -0.262750    0.000432
     13          8           0        4.609109   -1.447334    0.007992
     14          8           0        4.989768    0.723213   -0.001530
     15          1           0        2.284141   -2.106920    0.014259
     16          1           0       -0.195442   -1.686448    0.002929
     17          1           0       -1.541438    1.795030   -0.045117
     18          8           0       -2.369185   -1.280935    0.046850
     19         17           0       -5.191254   -0.326699   -0.078541
     20          1           0       -3.833161    1.201245    1.165857
     21          1           0       -3.799663    1.554159   -0.622319
 ---------------------------------------------------------------------
 Rotational constants (GHZ):           2.6383957           0.1981702           0.1846373
 Standard basis: 6-31+G(d,p) (6D, 7F)
 There are   305 symmetry adapted cartesian basis functions of A   symmetry.
 There are   305 symmetry adapted basis functions of A   symmetry.
   305 basis functions,   521 primitive gaussians,   305 cartesian basis functions
    55 alpha electrons       55 beta electrons
       nuclear repulsion energy       898.8622321160 Hartrees.
 NAtoms=   21 NActive=   21 NUniq=   21 SFac= 1.00D+00 NAtFMM=   60 NAOKFM=F Big=F
 Integral buffers will be    131072 words long.
 Raffenetti 2 integral format.
 Two-electron integral symmetry is turned on.
 One-electron integrals computed using PRISM.
 NBasis=   305 RedAO= T EigKep=  1.46D-06  NBF=   305
 NBsUse=   305 1.00D-06 EigRej= -1.00D+00 NBFU=   305
 ExpMin= 4.38D-02 ExpMax= 2.52D+04 ExpMxC= 3.78D+03 IAcc=3 IRadAn=         5 AccDes= 0.00D+00
 Harris functional with IExCor= 1009 and IRadAn=       5 diagonalized for initial guess.
 HarFok:  IExCor= 1009 AccDes= 0.00D+00 IRadAn=         5 IDoV= 1 UseB2=F ITyADJ=14
 ICtDFT=  3500011 ScaDFX=  1.000000  1.000000  1.000000  1.000000
 FoFCou: FMM=F IPFlag=           0 FMFlag=      100000 FMFlg1=           0
         NFxFlg=           0 DoJE=T BraDBF=F KetDBF=T FulRan=T
         wScrn=  0.000000 ICntrl=       500 IOpCl=  0 I1Cent=   200000004 NGrid=           0
         NMat0=    1 NMatS0=      1 NMatT0=    0 NMatD0=    1 NMtDS0=    0 NMtDT0=    0
 Petite list used in FoFCou.
 Requested convergence on RMS density matrix=1.00D-08 within 128 cycles.
 Requested convergence on MAX density matrix=1.00D-06.
 Requested convergence on             energy=1.00D-06.
 No special actions if energy rises.
 EnCoef did     3 forward-backward iterations
 EnCoef did     6 forward-backward iterations
 SCF Done:  E(RPBE-PBE) =  -1103.48058263     A.U. after   19 cycles
            NFock= 19  Conv=0.70D-08     -V/T= 2.0069

 **********************************************************************

            Population analysis using the SCF Density.

 **********************************************************************

 Orbital symmetries:
       Occupied  (A) (A) (A) (A) (A) (A) (A) (A) (A) (A) (A) (A)
                 (A) (A) (A) (A) (A) (A) (A) (A) (A) (A) (A) (A)
                 (A) (A) (A) (A) (A) (A) (A) (A) (A) (A) (A) (A)
                 (A) (A) (A) (A) (A) (A) (A) (A) (A) (A) (A) (A)
                 (A) (A) (A) (A) (A) (A) (A)
       Virtual   (A) (A) (A) (A) (A) (A) (A) (A) (A) (A) (A) (A)
                 (A) (A) (A) (A) (A) (A) (A) (A) (A) (A) (A) (A)
                 (A) (A) (A) (A) (A) (A) (A) (A) (A) (A) (A) (A)
                 (A) (A) (A) (A) (A) (A) (A) (A) (A) (A) (A) (A)
                 (A) (A) (A) (A) (A) (A) (A) (A) (A) (A) (A) (A)
                 (A) (A) (A) (A) (A) (A) (A) (A) (A) (A) (A) (A)
                 (A) (A) (A) (A) (A) (A) (A) (A) (A) (A) (A) (A)
                 (A) (A) (A) (A) (A) (A) (A) (A) (A) (A) (A) (A)
                 (A) (A) (A) (A) (A) (A) (A) (A) (A) (A) (A) (A)
                 (A) (A) (A) (A) (A) (A) (A) (A) (A) (A) (A) (A)
                 (A) (A) (A) (A) (A) (A) (A) (A) (A) (A) (A) (A)
                 (A) (A) (A) (A) (A) (A) (A) (A) (A) (A) (A) (A)
                 (A) (A) (A) (A) (A) (A) (A) (A) (A) (A) (A) (A)
                 (A) (A) (A) (A) (A) (A) (A) (A) (A) (A) (A) (A)
                 (A) (A) (A) (A) (A) (A) (A) (A) (A) (A) (A) (A)
                 (A) (A) (A) (A) (A) (A) (A) (A) (A) (A) (A) (A)
                 (A) (A) (A) (A) (A) (A) (A) (A) (A) (A) (A) (A)
                 (A) (A) (A) (A) (A) (A) (A) (A) (A) (A) (A) (A)
                 (A) (A) (A) (A) (A) (A) (A) (A) (A) (A) (A) (A)
                 (A) (A) (A) (A) (A) (A) (A) (A) (A) (A) (A) (A)
                 (A) (A) (A) (A) (A) (A) (A) (A) (A) (A)
 The electronic state is 1-A.
 Alpha  occ. eigenvalues -- -100.70091 -18.81677 -18.81669 -18.79616 -14.23704
 Alpha  occ. eigenvalues --  -14.09926 -10.04842 -10.00492  -9.99875  -9.97768
 Alpha  occ. eigenvalues --   -9.95276  -9.95173  -9.94831  -9.94148  -9.19626
 Alpha  occ. eigenvalues --   -7.02319  -7.01012  -7.01004  -1.13083  -0.99539
 Alpha  occ. eigenvalues --   -0.96915  -0.90768  -0.82276  -0.80552  -0.74883
 Alpha  occ. eigenvalues --   -0.71846  -0.68646  -0.63733  -0.60657  -0.57074
 Alpha  occ. eigenvalues --   -0.54850  -0.52536  -0.50298  -0.48357  -0.47904
 Alpha  occ. eigenvalues --   -0.46357  -0.45878  -0.43136  -0.42903  -0.41380
 Alpha  occ. eigenvalues --   -0.41238  -0.40224  -0.39674  -0.38658  -0.36153
 Alpha  occ. eigenvalues --   -0.34182  -0.31496  -0.28285  -0.28208  -0.27956
 Alpha  occ. eigenvalues --   -0.26868  -0.26662  -0.25245  -0.24789  -0.23985
 Alpha virt. eigenvalues --   -0.13276  -0.07806  -0.07570  -0.05800  -0.03646
 Alpha virt. eigenvalues --   -0.03302  -0.01416  -0.00394   0.01202   0.01479
 Alpha virt. eigenvalues --    0.01785   0.02557   0.03876   0.04123   0.05025
 Alpha virt. eigenvalues --    0.05394   0.06027   0.06375   0.06535   0.07365
 Alpha virt. eigenvalues --    0.07991   0.08332   0.08743   0.09783   0.10422
 Alpha virt. eigenvalues --    0.10705   0.11241   0.11403   0.12090   0.12204
 Alpha virt. eigenvalues --    0.13042   0.13288   0.13732   0.14343   0.14943
 Alpha virt. eigenvalues --    0.15575   0.15850   0.16300   0.16726   0.17005
 Alpha virt. eigenvalues --    0.17336   0.18201   0.18506   0.18664   0.19220
 Alpha virt. eigenvalues --    0.19478   0.19942   0.21315   0.21548   0.21838
 Alpha virt. eigenvalues --    0.22575   0.22998   0.23376   0.24314   0.24483
 Alpha virt. eigenvalues --    0.24648   0.24935   0.25655   0.25894   0.27291
 Alpha virt. eigenvalues --    0.27954   0.28184   0.28640   0.29802   0.30880
 Alpha virt. eigenvalues --    0.30968   0.31118   0.32207   0.33160   0.33665
 Alpha virt. eigenvalues --    0.34153   0.35445   0.37643   0.38188   0.39633
 Alpha virt. eigenvalues --    0.40485   0.42159   0.43445   0.45971   0.49949
 Alpha virt. eigenvalues --    0.51500   0.52697   0.53995   0.55542   0.57264
 Alpha virt. eigenvalues --    0.58248   0.58729   0.59545   0.61591   0.62668
 Alpha virt. eigenvalues --    0.63300   0.64482   0.65287   0.66437   0.67083
 Alpha virt. eigenvalues --    0.68808   0.69095   0.69702   0.72006   0.73372
 Alpha virt. eigenvalues --    0.74451   0.75089   0.77662   0.79490   0.80007
 Alpha virt. eigenvalues --    0.82013   0.84693   0.85339   0.85834   0.86141
 Alpha virt. eigenvalues --    0.88791   0.89271   0.90962   0.92146   0.92915
 Alpha virt. eigenvalues --    0.94494   0.96238   0.97163   1.00516   1.01243
 Alpha virt. eigenvalues --    1.02514   1.03020   1.06976   1.09291   1.09718
 Alpha virt. eigenvalues --    1.11462   1.12691   1.12878   1.13408   1.15472
 Alpha virt. eigenvalues --    1.16524   1.17655   1.19152   1.19603   1.20384
 Alpha virt. eigenvalues --    1.23433   1.24021   1.24635   1.25956   1.26818
 Alpha virt. eigenvalues --    1.28269   1.28446   1.29375   1.30027   1.31227
 Alpha virt. eigenvalues --    1.31876   1.33737   1.34034   1.35216   1.37198
 Alpha virt. eigenvalues --    1.40119   1.41407   1.42153   1.48484   1.53111
 Alpha virt. eigenvalues --    1.58809   1.60846   1.63007   1.63508   1.66512
 Alpha virt. eigenvalues --    1.68866   1.69962   1.71594   1.72253   1.73089
 Alpha virt. eigenvalues --    1.73693   1.75727   1.76712   1.77958   1.81785
 Alpha virt. eigenvalues --    1.82326   1.82874   1.85793   1.85982   1.86869
 Alpha virt. eigenvalues --    1.88190   1.90683   1.92227   1.95582   1.96493
 Alpha virt. eigenvalues --    1.97863   1.99449   2.00494   2.02078   2.03097
 Alpha virt. eigenvalues --    2.06854   2.09861   2.10681   2.13609   2.16878
 Alpha virt. eigenvalues --    2.17800   2.19810   2.23840   2.26159   2.29163
 Alpha virt. eigenvalues --    2.29958   2.31967   2.32687   2.35062   2.36669
 Alpha virt. eigenvalues --    2.37759   2.40480   2.42146   2.44100   2.47440
 Alpha virt. eigenvalues --    2.48176   2.50758   2.51433   2.52402   2.54179
 Alpha virt. eigenvalues --    2.57776   2.60126   2.60754   2.63149   2.64886
 Alpha virt. eigenvalues --    2.68969   2.71758   2.73823   2.77989   2.80883
 Alpha virt. eigenvalues --    2.90870   2.92242   2.96065   2.97034   3.00921
 Alpha virt. eigenvalues --    3.04763   3.08360   3.09328   3.12941   3.17515
 Alpha virt. eigenvalues --    3.22373   3.25981   3.26559   3.41853   3.46083
 Alpha virt. eigenvalues --    3.70121   4.03802   4.12268   4.19044   4.20030
 Alpha virt. eigenvalues --    4.22890   4.27608   4.28837   4.36592   4.37961
 Alpha virt. eigenvalues --    4.38797   4.41758   4.50662   4.69331   4.74106
          Condensed to atoms (all electrons):
               1          2          3          4          5          6
     1  C    6.831857  -0.958277  -0.088989   0.045786  -0.077237  -0.245655
     2  C   -0.958277   6.929684  -0.039376  -0.735991   0.779914   0.032181
     3  N   -0.088989  -0.039376   7.362016  -0.063898  -0.199633  -0.159508
     4  C    0.045786  -0.735991  -0.063898  12.043163  -0.102592  -3.267659
     5  C   -0.077237   0.779914  -0.199633  -0.102592  21.785554 -10.319503
     6  C   -0.245655   0.032181  -0.159508  -3.267659 -10.319503  24.025199
     7  C   -0.000055  -0.183897   0.009242  -2.057072  -3.395306   1.679791
     8  C   -0.052057   0.111091  -0.008937   0.113875  -2.883906  -1.187542
     9  C    0.230053  -0.903126   0.294385   0.077334  -1.177480  -5.299044
    10  H   -0.001851   0.003512  -0.027833   0.201195   0.087919  -0.012307
    11  H    0.000039   0.001190   0.000156  -0.019426   0.004335   0.104572
    12  N    0.000392   0.002333   0.000388  -0.015347  -0.070097   0.283837
    13  O    0.000039   0.000946  -0.000054   0.037856   0.317374  -0.151874
    14  O    0.000025   0.000840  -0.000107   0.033535   0.032203   0.170502
    15  H   -0.000128   0.000299  -0.000755  -0.017456  -0.019128   0.024059
    16  H    0.009978   0.027502  -0.021340   0.034288   0.152623   0.121449
    17  H    0.030504  -0.058662   0.282810   0.004280   0.016717   0.025293
    18  O   -0.096720   0.480541  -0.075910  -0.467793   0.270011   0.302933
    19  Cl   0.274788  -0.058240   0.013369   0.003572  -0.021968  -0.014307
    20  H    0.416309  -0.082880  -0.001078   0.005640  -0.007927  -0.003298
    21  H    0.429762  -0.121052   0.011493   0.025995  -0.011261  -0.002012
               7          8          9         10         11         12
     1  C   -0.000055  -0.052057   0.230053  -0.001851   0.000039   0.000392
     2  C   -0.183897   0.111091  -0.903126   0.003512   0.001190   0.002333
     3  N    0.009242  -0.008937   0.294385  -0.027833   0.000156   0.000388
     4  C   -2.057072   0.113875   0.077334   0.201195  -0.019426  -0.015347
     5  C   -3.395306  -2.883906  -1.177480   0.087919   0.004335  -0.070097
     6  C    1.679791  -1.187542  -5.299044  -0.012307   0.104572   0.283837
     7  C   12.190498  -0.554906   0.265278  -0.026567   0.264368  -1.012617
     8  C   -0.554906  13.453600  -4.015520   0.151097   0.005899   0.207111
     9  C    0.265278  -4.015520  17.866859  -0.084469  -0.015434   0.078978
    10  H   -0.026567   0.151097  -0.084469   0.570870  -0.005586  -0.000306
    11  H    0.264368   0.005899  -0.015434  -0.005586   0.510322  -0.054264
    12  N   -1.012617   0.207111   0.078978  -0.000306  -0.054264   7.289918
    13  O   -0.419519   0.190443  -0.040850   0.000067  -0.002593   0.343245
    14  O   -0.317219  -0.142022   0.155014   0.000053   0.023684   0.330340
    15  H    0.258967   0.126159  -0.028763   0.000013  -0.000133  -0.053797
    16  H   -0.014295  -0.013134   0.022445  -0.000124   0.000010   0.000024
    17  H   -0.004579   0.058273  -0.097250   0.009286  -0.000020   0.000005
    18  O   -0.011112   0.025303  -0.158072   0.000036   0.000001   0.000145
    19  Cl  -0.000465  -0.001880   0.003022  -0.000025   0.000001   0.000010
    20  H    0.000361  -0.001766   0.004828  -0.000001   0.000000  -0.000000
    21  H   -0.000056  -0.000844   0.000998   0.000005   0.000000   0.000000
              13         14         15         16         17         18
     1  C    0.000039   0.000025  -0.000128   0.009978   0.030504  -0.096720
     2  C    0.000946   0.000840   0.000299   0.027502  -0.058662   0.480541
     3  N   -0.000054  -0.000107  -0.000755  -0.021340   0.282810  -0.075910
     4  C    0.037856   0.033535  -0.017456   0.034288   0.004280  -0.467793
     5  C    0.317374   0.032203  -0.019128   0.152623   0.016717   0.270011
     6  C   -0.151874   0.170502   0.024059   0.121449   0.025293   0.302933
     7  C   -0.419519  -0.317219   0.258967  -0.014295  -0.004579  -0.011112
     8  C    0.190443  -0.142022   0.126159  -0.013134   0.058273   0.025303
     9  C   -0.040850   0.155014  -0.028763   0.022445  -0.097250  -0.158072
    10  H    0.000067   0.000053   0.000013  -0.000124   0.009286   0.000036
    11  H   -0.002593   0.023684  -0.000133   0.000010  -0.000020   0.000001
    12  N    0.343245   0.330340  -0.053797   0.000024   0.000005   0.000145
    13  O    7.771734  -0.084276   0.024155  -0.000007   0.000000   0.000008
    14  O   -0.084276   7.797760  -0.002679   0.000060   0.000002  -0.000006
    15  H    0.024155  -0.002679   0.508003  -0.005059   0.000003   0.000162
    16  H   -0.000007   0.000060  -0.005059   0.503940  -0.000176  -0.009061
    17  H    0.000000   0.000002   0.000003  -0.000176   0.422929   0.007995
    18  O    0.000008  -0.000006   0.000162  -0.009061   0.007995   8.128434
    19  Cl   0.000000   0.000000   0.000002   0.000198   0.000379  -0.017831
    20  H    0.000000   0.000000  -0.000000  -0.000003  -0.000518  -0.002198
    21  H   -0.000000  -0.000000  -0.000000   0.000000   0.000300   0.003075
              19         20         21
     1  C    0.274788   0.416309   0.429762
     2  C   -0.058240  -0.082880  -0.121052
     3  N    0.013369  -0.001078   0.011493
     4  C    0.003572   0.005640   0.025995
     5  C   -0.021968  -0.007927  -0.011261
     6  C   -0.014307  -0.003298  -0.002012
     7  C   -0.000465   0.000361  -0.000056
     8  C   -0.001880  -0.001766  -0.000844
     9  C    0.003022   0.004828   0.000998
    10  H   -0.000025  -0.000001   0.000005
    11  H    0.000001   0.000000   0.000000
    12  N    0.000010  -0.000000   0.000000
    13  O    0.000000   0.000000  -0.000000
    14  O    0.000000   0.000000  -0.000000
    15  H    0.000002  -0.000000  -0.000000
    16  H    0.000198  -0.000003   0.000000
    17  H    0.000379  -0.000518   0.000300
    18  O   -0.017831  -0.002198   0.003075
    19  Cl  16.824064  -0.035213  -0.045107
    20  H   -0.035213   0.499061  -0.032820
    21  H   -0.045107  -0.032820   0.520175
 Mulliken charges:
               1
     1  C   -0.748566
     2  C    0.771466
     3  N   -0.286442
     4  C    0.120715
     5  C    0.839387
     6  C   -0.107107
     7  C   -0.670841
     8  C    0.419660
     9  C   -1.179186
    10  H    0.135014
    11  H    0.182879
    12  N   -0.330297
    13  O    0.013305
    14  O    0.002289
    15  H    0.186078
    16  H    0.190681
    17  H    0.302428
    18  O   -0.379943
    19  Cl   0.075628
    20  H    0.241503
    21  H    0.221346
 Sum of Mulliken charges =  -0.00000
 Mulliken charges with hydrogens summed into heavy atoms:
               1
     1  C   -0.285717
     2  C    0.771466
     3  N    0.015986
     4  C    0.120715
     5  C    1.030068
     6  C    0.078971
     7  C   -0.670841
     8  C    0.602539
     9  C   -1.044171
    12  N   -0.330297
    13  O    0.013305
    14  O    0.002289
    18  O   -0.379943
    19  Cl   0.075628
 Electronic spatial extent (au):  <R**2>=           5194.3568
 Charge=              0.0000 electrons
 Dipole moment (field-independent basis, Debye):
    X=             -3.9013    Y=              4.9704    Z=              0.2278  Tot=              6.3227
 Quadrupole moment (field-independent basis, Debye-Ang):
   XX=           -123.8622   YY=            -82.0686   ZZ=            -88.0009
   XY=             -8.1171   XZ=             -1.0913   YZ=              0.1861
 Traceless Quadrupole moment (field-independent basis, Debye-Ang):
   XX=            -25.8850   YY=             15.9086   ZZ=              9.9763
   XY=             -8.1171   XZ=             -1.0913   YZ=              0.1861
 Octapole moment (field-independent basis, Debye-Ang**2):
  XXX=           -128.2588  YYY=             12.6774  ZZZ=              1.2560  XYY=             -8.0665
  XXY=             40.3261  XXZ=              3.2322  XZZ=             -0.8154  YZZ=             -2.1941
  YYZ=             -0.9340  XYZ=             -1.4556
 Hexadecapole moment (field-independent basis, Debye-Ang**3):
 XXXX=          -7177.1252 YYYY=           -534.8061 ZZZZ=           -102.0431 XXXY=              9.0433
 XXXZ=             -9.7523 YYYX=             -2.9752 YYYZ=             -1.8249 ZZZX=             -3.6077
 ZZZY=              1.2873 XXYY=          -1113.3819 XXZZ=           -985.4077 YYZZ=           -119.0408
 XXYZ=              7.0675 YYXZ=              2.4708 ZZXY=             -8.6652
 N-N= 8.988622321160D+02 E-N=-4.391130785968D+03  KE= 1.095926342901D+03
 Calling FoFJK, ICntrl=      2527 FMM=F ISym2X=0 I1Cent= 0 IOpClX= 0 NMat=1 NMatS=1 NMatT=0.
 ***** Axes restored to original set *****
 -------------------------------------------------------------------
 Center     Atomic                   Forces (Hartrees/Bohr)
 Number     Number              X              Y              Z
 -------------------------------------------------------------------
      1        6           0.006035773    0.002152416   -0.006026539
      2        6           0.001510018    0.000230616   -0.001286983
      3        7          -0.000989598    0.000311947   -0.000812925
      4        6           0.000043728   -0.000776368    0.000134432
      5        6           0.000028932    0.000377213   -0.000085681
      6        6          -0.000026657    0.000420198    0.000075259
      7        6           0.000021571   -0.000384247   -0.000074754
      8        6          -0.000026577    0.000108707    0.000059033
      9        6          -0.000024749   -0.000005379   -0.000028794
     10        1          -0.000057043    0.000034072    0.000056192
     11        1          -0.000047040    0.000002403    0.000007099
     12        7          -0.000106505    0.000123144    0.000055990
     13        8          -0.000057720   -0.000010809   -0.000038051
     14        8           0.000152370   -0.000039470   -0.000046809
     15        1           0.000065648   -0.000132409   -0.000035492
     16        1           0.000021441   -0.000171695   -0.000018817
     17        1          -0.000292308    0.000058137    0.000070326
     18        8           0.000355405    0.000137361   -0.000248625
     19       17           0.005682521    0.000529143    0.001009291
     20        1          -0.004015591   -0.011195401    0.003672928
     21        1          -0.008273618    0.008230424    0.003562920
 -------------------------------------------------------------------
 Cartesian Forces:  Max     0.011195401 RMS     0.002588410

 GradGradGradGradGradGradGradGradGradGradGradGradGradGradGradGradGradGrad
 Berny optimization.
 FormGI is forming the generalized inverse of G from B-inverse, IUseBI=4.
 Internal  Forces:  Max     0.012437805 RMS     0.001919535
 Search for a local minimum.
 Step number   1 out of a maximum of  106
 All quantities printed in internal units (Hartrees-Bohrs-Radians)
 Mixed Optimization -- RFO/linear search
 Second derivative matrix not updated -- first step.
 ITU=  0
     Eigenvalues ---    0.00230   0.00738   0.00738   0.00858   0.01609
     Eigenvalues ---    0.01661   0.01702   0.01783   0.01817   0.01927
     Eigenvalues ---    0.02003   0.02031   0.02072   0.02084   0.02101
     Eigenvalues ---    0.02126   0.06894   0.07450   0.15991   0.16000
     Eigenvalues ---    0.16000   0.16000   0.16000   0.16000   0.16000
     Eigenvalues ---    0.22000   0.22004   0.22417   0.22979   0.24000
     Eigenvalues ---    0.24989   0.24999   0.25000   0.25000   0.25000
     Eigenvalues ---    0.25000   0.26599   0.27877   0.31150   0.31258
     Eigenvalues ---    0.34155   0.34573   0.34608   0.34864   0.35494
     Eigenvalues ---    0.40416   0.41164   0.44045   0.44240   0.44458
     Eigenvalues ---    0.44599   0.45548   0.46509   0.46784   0.85205
     Eigenvalues ---    0.85570   0.93348
 RFO step:  Lambda=-1.22967980D-03 EMin= 2.30000000D-03
 Linear search not attempted -- first point.
 Iteration  1 RMS(Cart)=  0.02480521 RMS(Int)=  0.00055263
 Iteration  2 RMS(Cart)=  0.00059725 RMS(Int)=  0.00001064
 Iteration  3 RMS(Cart)=  0.00000029 RMS(Int)=  0.00001063
 Variable       Old X    -DE/DX   Delta X   Delta X   Delta X     New X
                                 (Linear)    (Quad)   (Total)
    R1        2.92409  -0.00222   0.00000  -0.00792  -0.00792   2.91617
    R2        3.39008  -0.00565   0.00000  -0.02116  -0.02116   3.36893
    R3        2.12427  -0.01244   0.00000  -0.03977  -0.03977   2.08450
    R4        2.12224  -0.01216   0.00000  -0.03875  -0.03875   2.08349
    R5        2.63257  -0.00146   0.00000  -0.00310  -0.00310   2.62947
    R6        2.31427  -0.00043   0.00000  -0.00046  -0.00046   2.31381
    R7        2.65744   0.00002   0.00000   0.00004   0.00004   2.65748
    R8        1.92869  -0.00027   0.00000  -0.00060  -0.00060   1.92809
    R9        2.67276  -0.00008   0.00000  -0.00017  -0.00017   2.67258
   R10        2.67575  -0.00008   0.00000  -0.00020  -0.00020   2.67556
   R11        2.64047   0.00001   0.00000   0.00003   0.00003   2.64050
   R12        2.05897  -0.00001   0.00000  -0.00004  -0.00004   2.05893
   R13        2.64813  -0.00007   0.00000  -0.00015  -0.00015   2.64798
   R14        2.06375  -0.00007   0.00000  -0.00022  -0.00022   2.06353
   R15        2.65091  -0.00011   0.00000  -0.00024  -0.00024   2.65068
   R16        2.78180  -0.00003   0.00000  -0.00007  -0.00007   2.78173
   R17        2.63239  -0.00001   0.00000  -0.00003  -0.00003   2.63236
   R18        2.06316  -0.00005   0.00000  -0.00013  -0.00013   2.06303
   R19        2.07069  -0.00008   0.00000  -0.00024  -0.00024   2.07045
   R20        2.35044   0.00001   0.00000   0.00001   0.00001   2.35045
   R21        2.35225   0.00014   0.00000   0.00017   0.00017   2.35242
    A1        1.94909   0.00242   0.00000   0.01022   0.01020   1.95929
    A2        1.90511   0.00024   0.00000   0.00373   0.00370   1.90881
    A3        1.93409   0.00048   0.00000   0.00276   0.00276   1.93685
    A4        1.88478  -0.00095   0.00000  -0.00257  -0.00260   1.88217
    A5        1.89678  -0.00194   0.00000  -0.01338  -0.01338   1.88339
    A6        1.89253  -0.00036   0.00000  -0.00122  -0.00123   1.89130
    A7        1.94398  -0.00025   0.00000  -0.00086  -0.00090   1.94308
    A8        2.16530   0.00012   0.00000   0.00061   0.00056   2.16586
    A9        2.17353   0.00014   0.00000   0.00071   0.00066   2.17419
   A10        2.24923  -0.00006   0.00000  -0.00022  -0.00023   2.24900
   A11        2.03158  -0.00010   0.00000  -0.00057  -0.00058   2.03100
   A12        2.00131   0.00017   0.00000   0.00114   0.00113   2.00244
   A13        2.14924  -0.00010   0.00000  -0.00039  -0.00040   2.14884
   A14        2.04417   0.00010   0.00000   0.00041   0.00040   2.04457
   A15        2.08975   0.00000   0.00000   0.00002   0.00001   2.08977
   A16        2.08493   0.00001   0.00000   0.00008   0.00008   2.08501
   A17        2.08870  -0.00004   0.00000  -0.00025  -0.00026   2.08844
   A18        2.10955   0.00003   0.00000   0.00018   0.00018   2.10973
   A19        2.09335  -0.00004   0.00000  -0.00016  -0.00016   2.09318
   A20        2.10784   0.00004   0.00000   0.00023   0.00022   2.10806
   A21        2.08199  -0.00000   0.00000  -0.00005  -0.00006   2.08194
   A22        2.11782   0.00003   0.00000   0.00012   0.00012   2.11793
   A23        2.08585  -0.00002   0.00000  -0.00008  -0.00008   2.08577
   A24        2.07951  -0.00001   0.00000  -0.00002  -0.00002   2.07948
   A25        2.07422   0.00000   0.00000   0.00001   0.00001   2.07423
   A26        2.08727  -0.00002   0.00000  -0.00011  -0.00011   2.08716
   A27        2.12170   0.00001   0.00000   0.00010   0.00010   2.12179
   A28        2.10629  -0.00001   0.00000  -0.00004  -0.00004   2.10624
   A29        2.09287  -0.00000   0.00000  -0.00002  -0.00002   2.09285
   A30        2.08403   0.00001   0.00000   0.00006   0.00006   2.08409
   A31        2.05480  -0.00006   0.00000  -0.00022  -0.00023   2.05457
   A32        2.05311  -0.00005   0.00000  -0.00020  -0.00020   2.05291
   A33        2.17527   0.00011   0.00000   0.00043   0.00042   2.17569
    D1        2.95415  -0.00056   0.00000  -0.05693  -0.05694   2.89721
    D2       -0.21587  -0.00039   0.00000  -0.03930  -0.03932  -0.25519
    D3       -1.24630  -0.00008   0.00000  -0.05133  -0.05132  -1.29762
    D4        1.86686   0.00009   0.00000  -0.03371  -0.03370   1.83316
    D5        0.83679  -0.00008   0.00000  -0.04879  -0.04878   0.78800
    D6       -2.33324   0.00010   0.00000  -0.03117  -0.03116  -2.36440
    D7        3.03858   0.00030   0.00000   0.01994   0.01994   3.05852
    D8       -0.05022   0.00014   0.00000   0.01134   0.01134  -0.03888
    D9       -0.07442   0.00012   0.00000   0.00222   0.00222  -0.07220
   D10        3.11996  -0.00004   0.00000  -0.00638  -0.00638   3.11358
   D11        0.06231  -0.00020   0.00000  -0.01103  -0.01103   0.05128
   D12       -3.08681  -0.00010   0.00000  -0.00574  -0.00574  -3.09255
   D13       -3.13132  -0.00005   0.00000  -0.00259  -0.00259  -3.13391
   D14        0.00275   0.00005   0.00000   0.00269   0.00270   0.00545
   D15        3.13814   0.00006   0.00000   0.00295   0.00295   3.14110
   D16       -0.00609   0.00015   0.00000   0.00713   0.00713   0.00104
   D17        0.00426  -0.00005   0.00000  -0.00247  -0.00247   0.00180
   D18       -3.13997   0.00004   0.00000   0.00171   0.00171  -3.13826
   D19       -3.13864  -0.00003   0.00000  -0.00163  -0.00163  -3.14027
   D20        0.00372  -0.00003   0.00000  -0.00185  -0.00186   0.00186
   D21       -0.00430   0.00007   0.00000   0.00346   0.00346  -0.00083
   D22        3.13806   0.00006   0.00000   0.00324   0.00324   3.14130
   D23       -0.00014  -0.00003   0.00000  -0.00138  -0.00138  -0.00152
   D24        3.13790   0.00009   0.00000   0.00433   0.00433  -3.14095
   D25       -3.13906  -0.00012   0.00000  -0.00561  -0.00561   3.13852
   D26       -0.00102   0.00001   0.00000   0.00010   0.00010  -0.00092
   D27       -0.00411   0.00009   0.00000   0.00438   0.00438   0.00027
   D28       -3.14130   0.00003   0.00000   0.00081   0.00081  -3.14049
   D29        3.14099  -0.00003   0.00000  -0.00125  -0.00125   3.13974
   D30        0.00380  -0.00010   0.00000  -0.00482  -0.00482  -0.00102
   D31        0.00408  -0.00007   0.00000  -0.00339  -0.00339   0.00070
   D32       -3.13883  -0.00006   0.00000  -0.00289  -0.00289   3.14146
   D33        3.14129  -0.00000   0.00000   0.00017   0.00017   3.14146
   D34       -0.00163   0.00001   0.00000   0.00067   0.00067  -0.00096
   D35        0.00282   0.00004   0.00000   0.00257   0.00257   0.00540
   D36       -3.13778  -0.00001   0.00000  -0.00306  -0.00306  -3.14084
   D37       -3.13446  -0.00002   0.00000  -0.00092  -0.00092  -3.13538
   D38        0.00812  -0.00007   0.00000  -0.00655  -0.00655   0.00157
   D39        0.00015  -0.00001   0.00000  -0.00055  -0.00055  -0.00041
   D40        3.14098  -0.00001   0.00000  -0.00033  -0.00033   3.14065
   D41       -3.14010  -0.00002   0.00000  -0.00105  -0.00105  -3.14115
   D42        0.00074  -0.00002   0.00000  -0.00083  -0.00083  -0.00010
         Item               Value     Threshold  Converged?
 Maximum Force            0.012438     0.000450     NO 
 RMS     Force            0.001920     0.000300     NO 
 Maximum Displacement     0.158402     0.001800     NO 
 RMS     Displacement     0.024694     0.001200     NO 
 Predicted change in Energy=-6.252461D-04
 GradGradGradGradGradGradGradGradGradGradGradGradGradGradGradGradGradGrad

                          Input orientation:                          
 ---------------------------------------------------------------------
 Center     Atomic      Atomic             Coordinates (Angstroms)
 Number     Number       Type             X           Y           Z
 ---------------------------------------------------------------------
      1          6           0        0.000078    0.000670    0.004342
      2          6           0        0.000067    0.020082    1.547392
      3          7           0        1.296165    0.016321    2.053615
      4          6           0        1.721759    0.120681    3.389878
      5          6           0        0.826747    0.192436    4.482564
      6          6           0        1.333717    0.294231    5.780655
      7          6           0        2.718952    0.322542    5.990017
      8          6           0        3.620623    0.250845    4.917939
      9          6           0        3.118015    0.150483    3.622670
     10          1           0        3.813996    0.094795    2.778320
     11          1           0        4.694285    0.275438    5.114086
     12          7           0        3.242862    0.428572    7.361566
     13          8           0        2.419911    0.483637    8.292574
     14          8           0        4.478959    0.451619    7.507076
     15          1           0        0.662347    0.350407    6.640022
     16          1           0       -0.247446    0.166254    4.302237
     17          1           0        2.050237   -0.033732    1.368133
     18          8           0       -1.013715    0.047595    2.233457
     19         17           0       -1.603871   -0.394484   -0.666056
     20          1           0        0.288660    0.995829   -0.373994
     21          1           0        0.720416   -0.739737   -0.381009
 ---------------------------------------------------------------------
                    Distance matrix (angstroms):
                    1          2          3          4          5
     1  C    0.000000
     2  C    1.543172   0.000000
     3  N    2.424789   1.391454   0.000000
     4  C    3.800058   2.523707   1.406279   0.000000
     5  C    4.557919   3.054233   2.480155   1.414270   0.000000
     6  C    5.935534   4.446830   3.737576   2.428274   1.397290
     7  C    6.582111   5.217349   4.196827   2.792108   2.422763
     8  C    6.108549   4.951996   3.696277   2.440819   2.828199
     9  C    4.778732   3.747717   2.408127   1.415843   2.447671
    10  H    4.716967   4.008343   2.621227   2.179937   3.440587
    11  H    6.944102   5.901033   4.580485   3.439876   3.919638
    12  N    8.051552   6.669873   5.668680   4.264137   3.765903
    13  O    8.647753   7.181086   6.356556   4.965438   4.139945
    14  O    8.749557   7.467565   6.329289   4.966185   4.749053
    15  H    6.677811   5.146126   4.642033   3.426159   2.169472
    16  H    4.308200   2.769801   2.731578   2.170771   1.089538
    17  H    2.462572   2.058695   1.020301   2.054067   3.353769
    18  O    2.449271   1.224417   2.317082   2.970770   2.909771
    19  Cl   1.782760   2.764749   3.996946   5.270276   5.723693
    20  H    1.103068   2.174189   2.804958   4.121455   4.951883
    21  H    1.102536   2.194301   2.613523   3.995322   4.953241
                    6          7          8          9         10
     6  C    0.000000
     7  C    1.401253   0.000000
     8  C    2.444607   1.402677   0.000000
     9  C    2.803798   2.406904   1.392985   0.000000
    10  H    3.899432   3.400881   2.154000   1.095635   0.000000
    11  H    3.426089   2.161345   1.091708   2.173605   2.502667
    12  N    2.482371   1.472030   2.479033   3.751302   4.630740
    13  O    2.743251   2.327476   3.589437   4.733534   5.701023
    14  O    3.591357   2.327177   2.735083   4.126919   4.788594
    15  H    1.091973   2.157060   3.424453   3.895470   4.991089
    16  H    2.168450   3.416510   3.917678   3.433422   4.338518
    17  H    4.482333   4.683580   3.892072   2.501405   2.261856
    18  O    4.260737   5.302843   5.359557   4.360241   4.858590
    19  Cl   7.117853   7.968954   7.674164   6.402060   6.438664
    20  H    6.282045   6.845457   6.297741   4.969224   4.814243
    21  H    6.277845   6.761106   6.121381   4.750834   4.499782
                   11         12         13         14         15
    11  H    0.000000
    12  N    2.679785   0.000000
    13  O    3.913938   1.243807   0.000000
    14  O    2.409109   1.244846   2.204022   0.000000
    15  H    4.311684   2.680633   2.416134   3.915169   0.000000
    16  H    5.009163   4.648715   4.810230   5.717633   2.515328
    17  H    4.595513   6.128403   6.953575   6.619734   5.465036
    18  O    6.397750   6.675410   6.978024   7.625206   4.724267
    19  Cl   8.574707   9.413340   9.859967  10.223346   7.685661
    20  H    7.074426   8.299879   8.939461   8.942373   7.053555
    21  H    6.856987   8.226491   8.922778   8.818609   7.105397
                   16         17         18         19         20
    16  H    0.000000
    17  H    3.732065   0.000000
    18  O    2.209321   3.184839   0.000000
    19  Cl   5.180565   4.197686   2.991804   0.000000
    20  H    4.779409   2.682937   3.064985   2.366421   0.000000
    21  H    4.867276   2.307892   3.234584   2.367016   1.788478
                   21
    21  H    0.000000
 Stoichiometry    C8H7ClN2O3
 Framework group  C1[X(C8H7ClN2O3)]
 Deg. of freedom    57
 Full point group                 C1      NOp   1
 Largest Abelian subgroup         C1      NOp   1
 Largest concise Abelian subgroup C1      NOp   1
                         Standard orientation:                         
 ---------------------------------------------------------------------
 Center     Atomic      Atomic             Coordinates (Angstroms)
 Number     Number       Type             X           Y           Z
 ---------------------------------------------------------------------
      1          6           0       -3.761227    0.719886    0.170908
      2          6           0       -2.437913   -0.068727    0.079745
      3          7           0       -1.343014    0.786737    0.005443
      4          6           0        0.026761    0.468411    0.002532
      5          6           0        0.511392   -0.860124    0.019498
      6          6           0        1.889807   -1.088966    0.014609
      7          6           0        2.778303   -0.005668   -0.008812
      8          6           0        2.314729    1.318061   -0.027373
      9          6           0        0.941066    1.549192   -0.021372
     10          1           0        0.568794    2.579556   -0.034839
     11          1           0        3.032599    2.140355   -0.045310
     12          7           0        4.228611   -0.257539   -0.015188
     13          8           0        4.610265   -1.441301   -0.005189
     14          8           0        4.985892    0.730266   -0.035337
     15          1           0        2.287541   -2.105855    0.026835
     16          1           0       -0.193317   -1.690934    0.034731
     17          1           0       -1.549117    1.785789   -0.015320
     18          8           0       -2.365558   -1.290993    0.084865
     19         17           0       -5.183846   -0.310769   -0.132637
     20          1           0       -3.863323    1.147401    1.182623
     21          1           0       -3.779272    1.546197   -0.558799
 ---------------------------------------------------------------------
 Rotational constants (GHZ):           2.6403870           0.1984370           0.1849614
 Standard basis: 6-31+G(d,p) (6D, 7F)
 There are   305 symmetry adapted cartesian basis functions of A   symmetry.
 There are   305 symmetry adapted basis functions of A   symmetry.
   305 basis functions,   521 primitive gaussians,   305 cartesian basis functions
    55 alpha electrons       55 beta electrons
       nuclear repulsion energy       899.6318546222 Hartrees.
 NAtoms=   21 NActive=   21 NUniq=   21 SFac= 1.00D+00 NAtFMM=   60 NAOKFM=F Big=F
 Integral buffers will be    131072 words long.
 Raffenetti 2 integral format.
 Two-electron integral symmetry is turned on.
 One-electron integrals computed using PRISM.
 NBasis=   305 RedAO= T EigKep=  1.46D-06  NBF=   305
 NBsUse=   305 1.00D-06 EigRej= -1.00D+00 NBFU=   305
 Initial guess from the checkpoint file:  "/scratch/webmo-4695/392/Gau-108890.chk"
 B after Tr=    -0.000000    0.000000    0.000000
         Rot=    0.999999   -0.001015    0.000042   -0.000212 Ang=  -0.12 deg.
 ExpMin= 4.38D-02 ExpMax= 2.52D+04 ExpMxC= 3.78D+03 IAcc=3 IRadAn=         5 AccDes= 0.00D+00
 Harris functional with IExCor= 1009 and IRadAn=       5 diagonalized for initial guess.
 HarFok:  IExCor= 1009 AccDes= 0.00D+00 IRadAn=         5 IDoV= 1 UseB2=F ITyADJ=14
 ICtDFT=  3500011 ScaDFX=  1.000000  1.000000  1.000000  1.000000
 FoFCou: FMM=F IPFlag=           0 FMFlag=      100000 FMFlg1=           0
         NFxFlg=           0 DoJE=T BraDBF=F KetDBF=T FulRan=T
         wScrn=  0.000000 ICntrl=       500 IOpCl=  0 I1Cent=   200000004 NGrid=           0
         NMat0=    1 NMatS0=      1 NMatT0=    0 NMatD0=    1 NMtDS0=    0 NMtDT0=    0
 Petite list used in FoFCou.
 Requested convergence on RMS density matrix=1.00D-08 within 128 cycles.
 Requested convergence on MAX density matrix=1.00D-06.
 Requested convergence on             energy=1.00D-06.
 No special actions if energy rises.
 SCF Done:  E(RPBE-PBE) =  -1103.48121135     A.U. after   14 cycles
            NFock= 14  Conv=0.76D-08     -V/T= 2.0068
 Calling FoFJK, ICntrl=      2527 FMM=F ISym2X=0 I1Cent= 0 IOpClX= 0 NMat=1 NMatS=1 NMatT=0.
 ***** Axes restored to original set *****
 -------------------------------------------------------------------
 Center     Atomic                   Forces (Hartrees/Bohr)
 Number     Number              X              Y              Z
 -------------------------------------------------------------------
      1        6          -0.000393355    0.000284028   -0.000130360
      2        6           0.001026111   -0.002077762   -0.000688476
      3        7          -0.000142888    0.000571597    0.000028353
      4        6           0.000120973    0.000073879    0.000099000
      5        6          -0.000018908    0.000074471    0.000003710
      6        6          -0.000004694   -0.000062755    0.000030572
      7        6          -0.000007936    0.000159966   -0.000082066
      8        6           0.000010683    0.000000872    0.000015998
      9        6          -0.000038629   -0.000089209   -0.000022199
     10        1          -0.000001773    0.000016548   -0.000000328
     11        1          -0.000000343    0.000001536    0.000002027
     12        7          -0.000034523   -0.000665246    0.000079694
     13        8           0.000046594    0.000257560   -0.000026587
     14        8           0.000007867    0.000237000    0.000012414
     15        1           0.000003211    0.000020135   -0.000002650
     16        1           0.000011174    0.000000468   -0.000008755
     17        1          -0.000007816    0.000025458    0.000073567
     18        8          -0.000519385    0.000956159    0.000194431
     19       17           0.000143597    0.000020314   -0.000021315
     20        1          -0.000193325    0.000089404    0.000233955
     21        1          -0.000006636    0.000105578    0.000209014
 -------------------------------------------------------------------
 Cartesian Forces:  Max     0.002077762 RMS     0.000367504

 GradGradGradGradGradGradGradGradGradGradGradGradGradGradGradGradGradGrad
 Berny optimization.
 Using GEDIIS/GDIIS optimizer.
 FormGI is forming the generalized inverse of G from B-inverse, IUseBI=4.
 Internal  Forces:  Max     0.000560014 RMS     0.000159617
 Search for a local minimum.
 Step number   2 out of a maximum of  106
 All quantities printed in internal units (Hartrees-Bohrs-Radians)
 Mixed Optimization -- En-DIIS/RFO-DIIS
 Update second derivatives using D2CorX and points    1    2
 DE= -6.29D-04 DEPred=-6.25D-04 R= 1.01D+00
 TightC=F SS=  1.41D+00  RLast= 1.30D-01 DXNew= 5.0454D-01 3.8938D-01
 Trust test= 1.01D+00 RLast= 1.30D-01 DXMaxT set to 3.89D-01
 ITU=  1  0
 Use linear search instead of GDIIS.
     Eigenvalues ---    0.00225   0.00738   0.00741   0.00897   0.01606
     Eigenvalues ---    0.01661   0.01699   0.01785   0.01819   0.01926
     Eigenvalues ---    0.02003   0.02031   0.02073   0.02084   0.02102
     Eigenvalues ---    0.02126   0.06840   0.07397   0.15990   0.15994
     Eigenvalues ---    0.16000   0.16000   0.16000   0.16000   0.16091
     Eigenvalues ---    0.21995   0.22000   0.22213   0.22979   0.24000
     Eigenvalues ---    0.24897   0.24999   0.25000   0.25000   0.25000
     Eigenvalues ---    0.25001   0.26526   0.27753   0.31017   0.31216
     Eigenvalues ---    0.34155   0.34573   0.34608   0.34864   0.35496
     Eigenvalues ---    0.40416   0.41164   0.44045   0.44238   0.44458
     Eigenvalues ---    0.44602   0.45548   0.46509   0.46788   0.85205
     Eigenvalues ---    0.85570   0.93424
 RFO step:  Lambda=-1.74395449D-04 EMin= 2.24855156D-03
 Quartic linear search produced a step of  0.00551.
 Iteration  1 RMS(Cart)=  0.02124726 RMS(Int)=  0.00042246
 Iteration  2 RMS(Cart)=  0.00062921 RMS(Int)=  0.00018220
 Iteration  3 RMS(Cart)=  0.00000025 RMS(Int)=  0.00018220
 Variable       Old X    -DE/DX   Delta X   Delta X   Delta X     New X
                                 (Linear)    (Quad)   (Total)
    R1        2.91617  -0.00030  -0.00004  -0.00209  -0.00214   2.91403
    R2        3.36893  -0.00013  -0.00012  -0.00322  -0.00334   3.36559
    R3        2.08450  -0.00005  -0.00022  -0.00532  -0.00554   2.07896
    R4        2.08349  -0.00015  -0.00021  -0.00550  -0.00572   2.07778
    R5        2.62947   0.00002  -0.00002  -0.00037  -0.00038   2.62908
    R6        2.31381   0.00056  -0.00000   0.00054   0.00054   2.31435
    R7        2.65748   0.00013   0.00000   0.00029   0.00029   2.65777
    R8        1.92809  -0.00006  -0.00000  -0.00021  -0.00021   1.92788
    R9        2.67258   0.00001  -0.00000   0.00001   0.00001   2.67259
   R10        2.67556  -0.00003  -0.00000  -0.00010  -0.00010   2.67545
   R11        2.64050   0.00002   0.00000   0.00004   0.00004   2.64054
   R12        2.05893  -0.00001  -0.00000  -0.00003  -0.00003   2.05890
   R13        2.64798   0.00001  -0.00000  -0.00000  -0.00000   2.64798
   R14        2.06353  -0.00000  -0.00000  -0.00004  -0.00004   2.06349
   R15        2.65068  -0.00001  -0.00000  -0.00004  -0.00005   2.65063
   R16        2.78173   0.00006  -0.00000   0.00015   0.00015   2.78188
   R17        2.63236   0.00001  -0.00000   0.00003   0.00003   2.63239
   R18        2.06303  -0.00000  -0.00000  -0.00002  -0.00002   2.06301
   R19        2.07045  -0.00000  -0.00000  -0.00004  -0.00004   2.07041
   R20        2.35045  -0.00004   0.00000  -0.00004  -0.00004   2.35041
   R21        2.35242   0.00001   0.00000   0.00004   0.00004   2.35246
    A1        1.95929   0.00028   0.00006   0.00259   0.00265   1.96194
    A2        1.90881  -0.00036   0.00002  -0.00193  -0.00191   1.90690
    A3        1.93685  -0.00020   0.00002  -0.00059  -0.00058   1.93628
    A4        1.88217  -0.00000  -0.00001  -0.00057  -0.00059   1.88159
    A5        1.88339   0.00005  -0.00007  -0.00077  -0.00085   1.88255
    A6        1.89130   0.00025  -0.00001   0.00128   0.00127   1.89257
    A7        1.94308   0.00043  -0.00000   0.00139   0.00065   1.94372
    A8        2.16586  -0.00037   0.00000  -0.00162  -0.00234   2.16352
    A9        2.17419  -0.00007   0.00000  -0.00047  -0.00120   2.17299
   A10        2.24900   0.00010  -0.00000   0.00045   0.00045   2.24945
   A11        2.03100   0.00000  -0.00000   0.00004   0.00003   2.03103
   A12        2.00244  -0.00010   0.00001  -0.00037  -0.00037   2.00207
   A13        2.14884   0.00002  -0.00000   0.00004   0.00004   2.14888
   A14        2.04457  -0.00003   0.00000  -0.00006  -0.00006   2.04451
   A15        2.08977   0.00001   0.00000   0.00002   0.00002   2.08979
   A16        2.08501  -0.00000   0.00000   0.00000   0.00000   2.08501
   A17        2.08844  -0.00001  -0.00000  -0.00010  -0.00010   2.08834
   A18        2.10973   0.00001   0.00000   0.00010   0.00010   2.10983
   A19        2.09318  -0.00001  -0.00000  -0.00006  -0.00006   2.09313
   A20        2.10806   0.00001   0.00000   0.00006   0.00006   2.10812
   A21        2.08194   0.00000  -0.00000   0.00000   0.00000   2.08194
   A22        2.11793   0.00001   0.00000   0.00005   0.00005   2.11798
   A23        2.08577  -0.00001  -0.00000  -0.00004  -0.00004   2.08573
   A24        2.07948  -0.00000  -0.00000  -0.00001  -0.00001   2.07948
   A25        2.07423  -0.00000   0.00000  -0.00002  -0.00002   2.07421
   A26        2.08716  -0.00000  -0.00000  -0.00002  -0.00002   2.08714
   A27        2.12179   0.00000   0.00000   0.00004   0.00004   2.12184
   A28        2.10624   0.00000  -0.00000   0.00001   0.00001   2.10625
   A29        2.09285  -0.00000  -0.00000  -0.00001  -0.00001   2.09284
   A30        2.08409  -0.00000   0.00000   0.00000   0.00000   2.08410
   A31        2.05457   0.00003  -0.00000   0.00018  -0.00054   2.05403
   A32        2.05291   0.00002  -0.00000   0.00016  -0.00057   2.05234
   A33        2.17569  -0.00005   0.00000  -0.00004  -0.00076   2.17493
    D1        2.89721   0.00027  -0.00031  -0.00986  -0.01019   2.88701
    D2       -0.25519  -0.00035  -0.00022  -0.07850  -0.07869  -0.33388
    D3       -1.29762   0.00020  -0.00028  -0.01022  -0.01052  -1.30814
    D4        1.83316  -0.00041  -0.00019  -0.07886  -0.07902   1.75414
    D5        0.78800   0.00016  -0.00027  -0.01024  -0.01053   0.77747
    D6       -2.36440  -0.00046  -0.00017  -0.07888  -0.07903  -2.44343
    D7        3.05852  -0.00031   0.00011  -0.03285  -0.03274   3.02578
    D8       -0.03888  -0.00035   0.00006  -0.03624  -0.03618  -0.07506
    D9       -0.07220   0.00031   0.00001   0.03619   0.03621  -0.03600
   D10        3.11358   0.00028  -0.00004   0.03280   0.03277  -3.13683
   D11        0.05128  -0.00008  -0.00006  -0.00622  -0.00628   0.04500
   D12       -3.09255  -0.00011  -0.00003  -0.00722  -0.00725  -3.09980
   D13       -3.13391  -0.00004  -0.00001  -0.00287  -0.00288  -3.13679
   D14        0.00545  -0.00007   0.00001  -0.00387  -0.00385   0.00160
   D15        3.14110  -0.00003   0.00002  -0.00149  -0.00147   3.13963
   D16        0.00104  -0.00003   0.00004  -0.00055  -0.00051   0.00053
   D17        0.00180  -0.00000  -0.00001  -0.00046  -0.00048   0.00132
   D18       -3.13826   0.00000   0.00001   0.00047   0.00048  -3.13778
   D19       -3.14027   0.00003  -0.00001   0.00137   0.00137  -3.13890
   D20        0.00186   0.00003  -0.00001   0.00144   0.00143   0.00330
   D21       -0.00083  -0.00000   0.00002   0.00041   0.00043  -0.00040
   D22        3.14130   0.00000   0.00002   0.00048   0.00050  -3.14139
   D23       -0.00152   0.00001  -0.00001   0.00008   0.00007  -0.00145
   D24       -3.14095  -0.00001   0.00002   0.00012   0.00014  -3.14081
   D25        3.13852  -0.00000  -0.00003  -0.00087  -0.00090   3.13762
   D26       -0.00092  -0.00002   0.00000  -0.00083  -0.00083  -0.00174
   D27        0.00027  -0.00000   0.00002   0.00037   0.00039   0.00067
   D28       -3.14049  -0.00001   0.00000  -0.00066  -0.00066  -3.14114
   D29        3.13974   0.00001  -0.00001   0.00033   0.00033   3.14007
   D30       -0.00102  -0.00000  -0.00003  -0.00070  -0.00072  -0.00174
   D31        0.00070   0.00000  -0.00002  -0.00042  -0.00044   0.00025
   D32        3.14146  -0.00000  -0.00002  -0.00050  -0.00052   3.14095
   D33        3.14146   0.00001   0.00000   0.00060   0.00060  -3.14112
   D34       -0.00096   0.00001   0.00000   0.00053   0.00053  -0.00043
   D35        0.00540  -0.00026   0.00001  -0.03504  -0.03500  -0.02960
   D36       -3.14084   0.00025  -0.00002   0.03247   0.03243  -3.10841
   D37       -3.13538  -0.00027  -0.00001  -0.03604  -0.03603   3.11178
   D38        0.00157   0.00024  -0.00004   0.03146   0.03140   0.03297
   D39       -0.00041   0.00000  -0.00000   0.00003   0.00003  -0.00038
   D40        3.14065  -0.00000  -0.00000  -0.00004  -0.00004   3.14061
   D41       -3.14115   0.00000  -0.00001   0.00011   0.00010  -3.14105
   D42       -0.00010   0.00000  -0.00000   0.00004   0.00003  -0.00006
         Item               Value     Threshold  Converged?
 Maximum Force            0.000560     0.000450     NO 
 RMS     Force            0.000160     0.000300     YES
 Maximum Displacement     0.091945     0.001800     NO 
 RMS     Displacement     0.021267     0.001200     NO 
 Predicted change in Energy=-8.936914D-05
 GradGradGradGradGradGradGradGradGradGradGradGradGradGradGradGradGradGrad

                          Input orientation:                          
 ---------------------------------------------------------------------
 Center     Atomic      Atomic             Coordinates (Angstroms)
 Number     Number       Type             X           Y           Z
 ---------------------------------------------------------------------
      1          6           0       -0.000818    0.016337    0.006263
      2          6           0        0.000154   -0.007297    1.548122
      3          7           0        1.296040   -0.003052    2.054322
      4          6           0        1.721676    0.106937    3.390282
      5          6           0        0.826687    0.184335    4.482608
      6          6           0        1.333723    0.289725    5.780409
      7          6           0        2.718999    0.316113    5.989746
      8          6           0        3.620615    0.239393    4.918002
      9          6           0        3.117910    0.135378    3.623044
     10          1           0        3.813826    0.075793    2.778933
     11          1           0        4.694286    0.263096    5.114155
     12          7           0        3.243013    0.426804    7.360972
     13          8           0        2.419746    0.525777    8.288029
     14          8           0        4.478416    0.483590    7.503256
     15          1           0        0.662434    0.350143    6.639526
     16          1           0       -0.247492    0.158731    4.302217
     17          1           0        2.050279   -0.054111    1.369262
     18          8           0       -1.012721    0.053288    2.233914
     19         17           0       -1.590750   -0.402613   -0.678237
     20          1           0        0.259310    1.027200   -0.341286
     21          1           0        0.737431   -0.691082   -0.398056
 ---------------------------------------------------------------------
                    Distance matrix (angstroms):
                    1          2          3          4          5
     1  C    0.000000
     2  C    1.542041   0.000000
     3  N    2.424204   1.391251   0.000000
     4  C    3.798260   2.523934   1.406433   0.000000
     5  C    4.555288   3.054683   2.480318   1.414274   0.000000
     6  C    5.932665   4.447346   3.737762   2.428297   1.397313
     7  C    6.579464   5.217734   4.196933   2.792064   2.422742
     8  C    6.106531   4.952241   3.696362   2.440787   2.828186
     9  C    4.777211   3.747808   2.408166   1.415788   2.447641
    10  H    4.716222   4.008229   2.621169   2.179864   3.440536
    11  H    6.942295   5.901236   4.580556   3.439845   3.919614
    12  N    8.048769   6.670368   5.668864   4.264172   3.765953
    13  O    8.643282   7.180874   6.356216   4.964942   4.139523
    14  O    8.745672   7.467224   6.328920   4.965686   4.748578
    15  H    6.674693   5.146725   4.642231   3.426183   2.169509
    16  H    4.305386   2.770187   2.731611   2.170698   1.089521
    17  H    2.463682   2.058445   1.020191   2.053884   3.353648
    18  O    2.446987   1.224703   2.316421   2.969342   2.908130
    19  Cl   1.780994   2.764765   3.995007   5.271115   5.729121
    20  H    1.100137   2.169610   2.806273   4.112177   4.929736
    21  H    1.099512   2.190604   2.607602   3.994631   4.959355
                    6          7          8          9         10
     6  C    0.000000
     7  C    1.401252   0.000000
     8  C    2.444617   1.402653   0.000000
     9  C    2.803813   2.406880   1.392999   0.000000
    10  H    3.899427   3.400841   2.153998   1.095615   0.000000
    11  H    3.426074   2.161303   1.091699   2.173634   2.502709
    12  N    2.482409   1.472108   2.479075   3.751358   4.630779
    13  O    2.742867   2.327147   3.589037   4.733067   5.700533
    14  O    3.590944   2.326867   2.734775   4.126533   4.788236
    15  H    1.091953   2.157042   3.424434   3.895465   4.991064
    16  H    2.168514   3.416517   3.917646   3.433329   4.338384
    17  H    4.482175   4.683282   3.891742   2.501055   2.261448
    18  O    4.259030   5.301046   5.357870   4.358731   4.857274
    19  Cl   7.123622   7.971983   7.673877   6.400151   6.433532
    20  H    6.258865   6.829180   6.291194   4.968185   4.824472
    21  H    6.284185   6.763510   6.118742   4.745415   4.488381
                   11         12         13         14         15
    11  H    0.000000
    12  N    2.679773   0.000000
    13  O    3.913567   1.243783   0.000000
    14  O    2.408946   1.244866   2.203581   0.000000
    15  H    4.311631   2.680624   2.415896   3.914787   0.000000
    16  H    5.009122   4.648813   4.809945   5.717201   2.515476
    17  H    4.595173   6.128171   6.952849   6.618977   5.464908
    18  O    6.396072   6.673643   6.975485   7.622579   4.722678
    19  Cl   8.573019   9.417116   9.866099  10.225310   7.693708
    20  H    7.072108   8.281772   8.909770   8.923745   7.025145
    21  H    6.852126   8.229832   8.930789   8.820746   7.114586
                   16         17         18         19         20
    16  H    0.000000
    17  H    3.731926   0.000000
    18  O    2.207844   3.184513   0.000000
    19  Cl   5.188870   4.191753   3.003762   0.000000
    20  H    4.751127   2.702366   3.032857   2.362334   0.000000
    21  H    4.876969   2.291880   3.247212   2.362656   1.784465
                   21
    21  H    0.000000
 Stoichiometry    C8H7ClN2O3
 Framework group  C1[X(C8H7ClN2O3)]
 Deg. of freedom    57
 Full point group                 C1      NOp   1
 Largest Abelian subgroup         C1      NOp   1
 Largest concise Abelian subgroup C1      NOp   1
                         Standard orientation:                         
 ---------------------------------------------------------------------
 Center     Atomic      Atomic             Coordinates (Angstroms)
 Number     Number       Type             X           Y           Z
 ---------------------------------------------------------------------
      1          6           0       -3.758320    0.709851    0.199559
[...]
 ,0.00189140,-0.00050385,0.05995201,-0.06547787,-0.07197775,-0.06612617
 ,0.05951501,0.00007003,-0.00004858,-0.00000969,0.00000310,0.00019410,0
 .00026814,-0.00106847,0.00131420,0.00186639,-0.00526231,0.00201789,0.0
 0417383,-0.00145950,-0.00026379,0.00093109,-0.00063762,0.00033627,-0.0
 0020205,-0.00403787,-0.00051566,-0.00268806,0.01694264,-0.00962344,-0.
 01744867,0.11411013,-0.07205709,-0.20075355,-0.12066098,0.07865873,0.2
 1366555,-0.00001595,0.00001113,0.00000286,0.00007650,-0.00011651,-0.00
 005105,-0.00023890,0.00013476,0.00001786,0.00204598,0.00160675,-0.0012
 8114,0.00041696,-0.00049979,0.00017953,0.00036439,0.00200770,0.0027841
 8,-0.01230714,0.00475658,-0.00380426,-0.30068371,0.08030093,-0.0496677
 9,-0.00382489,0.00247473,0.00003987,0.00025190,-0.00145730,0.00034310,
 0.31604414,-0.00002025,0.00002201,-0.00000037,-0.00003287,-0.00022887,
 -0.00001165,-0.00016992,0.00019057,-0.00007758,0.00165410,0.00661641,-
 0.00179764,-0.00051703,-0.00099263,-0.00003056,0.00187758,0.00352117,-
 0.00262193,0.00941789,0.00119523,0.00230215,0.08009898,-0.05976414,0.0
 1179907,-0.00247070,0.00409780,-0.00098391,-0.00143798,-0.00358276,0.0
 0090058,-0.08799407,0.05185789,-0.00015688,0.00005375,0.00001829,0.000
 37510,-0.00015598,-0.00038480,-0.00153240,0.00044792,-0.00021556,-0.00
 103881,-0.00188001,-0.00382101,0.00009162,-0.00000048,-0.00100625,0.00
 212133,-0.00239699,-0.00386248,0.01990542,-0.00573489,0.00907946,-0.05
 069473,0.01214833,-0.06053765,-0.02511708,0.00754177,-0.00148464,0.000
 44258,0.00086676,0.00092361,0.05533609,-0.01156379,0.06088338,0.000570
 15,-0.00015473,-0.00035086,-0.00393214,0.00107111,-0.00111315,0.002563
 42,-0.00045142,0.00454172,-0.00545154,0.00076272,-0.00233711,-0.005912
 71,0.00520697,0.00177556,-0.01037267,-0.00447242,-0.03215459,-0.094713
 29,0.00814119,-0.00555813,0.01756023,-0.00744907,0.00077321,0.00075324
 ,0.00418986,0.00834630,0.00077637,0.00045954,0.00164939,-0.00342953,0.
 00044904,0.00297556,0.76041868,0.00013873,0.00025406,-0.00007535,-0.00
 073861,0.00011926,-0.00002702,0.00016023,-0.00128386,0.00088542,0.0007
 2824,-0.00226780,-0.00088749,0.00521285,0.00666183,0.00002541,-0.00397
 387,-0.00188967,0.00854254,0.00827861,-0.07133057,-0.00538394,-0.00808
 250,-0.00368558,-0.00791109,0.00435526,0.00614856,-0.00330373,0.000030
 66,0.00101625,-0.00075764,-0.00035098,-0.00370835,0.00001452,-0.199802
 75,0.29256620,0.00114364,-0.00058099,-0.00067275,-0.01031873,0.0030930
 4,-0.00218050,0.00765291,-0.00016866,0.01092913,-0.00250776,-0.0008296
 3,-0.01038937,0.00180185,0.00001588,0.01161375,-0.02962241,0.00768204,
 -0.01689869,-0.00486850,-0.00561651,-0.10442385,-0.00244497,-0.0068182
 2,-0.04376522,0.00918651,-0.00358844,0.00585587,-0.00053272,-0.0000180
 7,0.00016521,-0.00109263,0.00139231,0.00137027,-0.06011827,0.09861497,
 0.60359091,0.00002541,-0.00002164,-0.00000674,-0.00117600,0.00037392,-
 0.00011328,0.00124455,-0.00012610,0.00125130,0.00012545,-0.00034110,-0
 .00201707,0.00172827,-0.00038517,0.00212447,-0.00783806,0.00180699,-0.
 00705708,0.01373275,0.00357437,0.01441112,0.00014745,0.00088183,-0.001
 78250,0.00153090,-0.00098022,-0.00019437,-0.00010648,-0.00017755,-0.00
 009534,0.00044910,-0.00028756,-0.00145119,-0.22662322,0.08246163,0.146
 54402,0.28798605,-0.00010994,0.00001350,0.00005570,0.00123271,-0.00038
 323,0.00021079,-0.00101733,0.00024096,-0.00127156,0.00054970,0.0003455
 9,0.00123260,-0.00074116,-0.00059626,-0.00105408,0.00411381,0.00059233
 ,0.00202996,0.00525768,0.01027454,-0.01967443,-0.00035625,0.00385024,-
 0.00027448,-0.00112317,-0.00095228,-0.00042305,-0.00022599,-0.00050790
 ,-0.00004811,0.00001750,0.00054873,0.00056388,0.08399634,-0.11636832,-
 0.10016560,-0.12936867,0.09602910,-0.00045570,0.00020752,0.00023714,0.
 00425595,-0.00126988,0.00087009,-0.00328185,0.00026449,-0.00416600,0.0
 0251282,-0.00030236,0.00308403,0.00031308,-0.00044070,-0.00234226,0.00
 468203,-0.00194665,-0.00024732,0.02297669,-0.02257694,-0.05933960,-0.0
 0808335,0.00186108,-0.00068637,-0.00091984,-0.00017804,-0.00373738,-0.
 00034171,0.00003525,-0.00098453,0.00009835,0.00003948,0.00081170,0.154
 35034,-0.10281002,-0.32527334,-0.20536187,0.13715578,0.36912229,-0.000
 48842,0.00019700,0.00029080,0.00298410,-0.00078757,0.00120874,-0.00189
 047,-0.00006438,-0.00394419,0.00130322,0.00043989,0.00377137,-0.000772
 86,-0.00075414,-0.00287493,0.00494618,-0.00103946,-0.00329583,-0.04131
 639,0.01258519,-0.03479076,-0.00301716,0.00348646,0.00960982,-0.001703
 60,-0.00031392,-0.00314289,-0.00005928,-0.00004410,-0.00029160,0.00150
 125,-0.00101483,-0.00232637,-0.43178476,0.11058409,-0.06401958,-0.0738
 8526,0.03942440,0.03281722,0.54416004,0.00007244,-0.00010876,-0.000048
 41,-0.00058696,0.00009898,-0.00029939,0.00038753,0.00024967,0.00087735
 ,-0.00047612,0.00038759,-0.00095359,-0.00066325,-0.00093996,0.00085369
 ,0.00024365,0.00358887,-0.00061146,0.01084157,0.01374410,0.00709863,0.
 00117930,0.00040761,-0.00451959,0.00002631,-0.00055047,0.00134787,0.00
 002731,-0.00001417,0.00007796,-0.00106632,0.00028155,0.00032564,0.1090
 5635,-0.10327550,0.00946506,0.04396898,0.00645889,-0.01069811,-0.16266
 220,0.07973424,-0.00034427,0.00016658,0.00018027,0.00222837,-0.0006451
 5,0.00051869,-0.00164598,0.00009880,-0.00212642,-0.00088979,0.00062588
 ,0.00206284,-0.00240752,0.00069570,-0.00194514,0.00322715,-0.00282171,
 -0.00499595,-0.04365697,0.01010243,-0.00782309,-0.00212606,-0.00054457
 ,-0.00473302,-0.00140969,0.00076109,0.00063365,0.00007153,-0.00004516,
 -0.00012628,-0.00258816,0.00041416,-0.00249665,-0.07179599,0.01209970,
 -0.13036709,0.05593773,-0.01853076,0.02558443,0.06688331,-0.00273360,0
 .12652356,-0.00001028,-0.00001392,-0.00000273,0.00040982,-0.00009695,0
 .00001186,0.00046552,-0.00026432,-0.00068453,0.00022221,0.00187615,-0.
 00318162,0.01016180,-0.00419739,-0.01047700,-0.14027149,0.05869550,0.1
 1856309,-0.01100513,0.00940079,0.02154138,-0.00429017,0.00248351,-0.00
 273104,-0.00037090,-0.00039151,-0.00081849,-0.00002190,-0.00018458,0.0
 0010912,-0.00048835,0.00063635,0.00125351,-0.00206835,0.00026508,0.004
 43091,0.00212376,-0.00108577,-0.00164764,0.00131792,-0.00041061,-0.000
 53114,0.14394861,-0.00001188,-0.00004428,0.00000761,-0.00000516,0.0001
 1267,-0.00003011,0.00003001,0.00008764,0.00007920,0.00191177,0.0067754
 8,-0.00091963,0.00068113,0.00360681,-0.00008429,0.05892806,-0.07048240
 ,-0.07456266,0.00470771,0.00133598,-0.00664499,0.00259236,0.00376560,0
 .00010970,-0.00038046,-0.00083758,0.00043120,-0.00018771,-0.00055125,0
 .00007628,0.00032103,0.00046624,-0.00044137,-0.00053201,-0.00381988,-0
 .00073779,-0.00114367,0.00026032,-0.00001234,-0.00010779,0.00046975,0.
 00009865,-0.06526678,0.06277847,0.00000778,0.00000409,-0.00001572,0.00
 047839,-0.00018829,-0.00001636,0.00081365,-0.00042791,-0.00069318,-0.0
 0300319,-0.00098007,-0.00255833,0.01433737,-0.00849435,-0.01463755,0.1
 1974670,-0.07496407,-0.21074193,-0.00232869,0.00144535,0.00757500,-0.0
 0217767,-0.00007793,0.00047232,-0.00076124,0.00041200,-0.00026768,0.00
 009327,0.00008161,-0.00005395,-0.00034977,0.00010212,0.00057778,0.0003
 7311,0.00063665,0.00002689,-0.00194273,0.00008758,-0.00302846,0.001012
 59,-0.00042429,0.00000033,-0.12624733,0.08170115,0.22255050,-0.0001125
 6,0.00026787,-0.00006638,0.00265847,-0.00068350,0.00073069,-0.00137778
 ,-0.00089017,-0.00100268,-0.01037768,0.00406209,-0.00369754,-0.3059062
 0,0.08311052,-0.04542551,-0.00327051,0.00184563,-0.00039467,0.00196595
 ,0.00149641,-0.00137324,0.00046411,-0.00034386,0.00047056,0.00049218,0
 .00205631,0.00210619,-0.00041855,0.00013760,-0.00029419,-0.00011116,-0
 .00020657,-0.00000991,0.00010034,0.00042849,0.00025456,0.00006404,-0.0
 0003413,-0.00002470,-0.00002253,-0.00019446,0.00003508,0.00021256,-0.0
 0148677,0.00033346,0.31990649,0.00028728,0.00058727,-0.00015951,0.0005
 3744,-0.00015364,-0.00096395,-0.00135963,-0.00278399,0.00090362,0.0093
 7533,0.00104886,0.00240774,0.08242085,-0.06019513,0.01043527,-0.003004
 14,0.00328040,-0.00072050,0.00153508,0.00631587,-0.00174140,-0.0003728
 6,-0.00073210,-0.00017789,0.00196951,0.00417773,-0.00250805,0.00045744
 ,0.00002313,0.00010235,-0.00020548,-0.00061616,0.00014824,0.00012283,0
 .00114347,-0.00016411,0.00001559,-0.00003063,-0.00001519,-0.00027733,-
 0.00052486,-0.00000995,-0.00146124,-0.00369315,0.00091474,-0.08989155,
 0.05324825,0.00003272,-0.00019324,-0.00021168,0.00693936,-0.00306759,-
 0.00342496,-0.00339016,0.00171285,-0.00055514,0.02332941,-0.00675049,0
 .00963194,-0.04892959,0.01162231,-0.05954280,-0.02506420,0.00764010,-0
 .00194157,-0.00117714,-0.00180776,-0.00404658,0.00032321,-0.00012808,-
 0.00091747,0.00166362,-0.00235827,-0.00378916,0.00133318,-0.00044914,0
 .00017170,-0.00000429,0.00014631,0.00002198,-0.00130068,0.00036283,0.0
 0082109,0.00022781,-0.00010078,-0.00014227,-0.00038631,0.00013273,-0.0
 0060746,0.00046375,0.00087069,0.00086007,0.05153370,-0.01006282,0.0624
 1381,-0.00219592,0.00003688,-0.00038009,-0.02028482,0.00986156,0.02401
 621,-0.21108272,0.09580566,0.14702851,0.01128573,-0.00596746,-0.006590
 77,-0.00092061,0.00028558,-0.00404411,0.00085254,0.00007849,-0.0000249
 2,-0.00013291,-0.00001325,-0.00067699,-0.00060559,0.00013746,0.0007907
 0,0.00169542,-0.00174296,-0.00370763,-0.00095236,0.00068918,0.00065310
 ,-0.00002861,0.00000924,-0.00010741,0.00026818,0.00005762,0.00068878,0
 .00001706,-0.00004144,-0.00014246,-0.00033932,0.00008242,-0.00010799,-
 0.00012222,-0.00009427,-0.00013061,-0.00023765,-0.00002816,-0.00004626
 ,0.22484812,-0.00097814,-0.00144356,0.00047392,0.00573758,-0.00770827,
 -0.00345720,0.09542691,-0.06310529,-0.08864798,-0.00110994,-0.00243042
 ,-0.00147299,0.00034922,0.00226871,0.00060022,0.00027930,0.00094499,-0
 .00030809,0.00014707,0.00024279,0.00036851,-0.00004209,-0.00069551,-0.
 00025186,-0.00052435,-0.00076000,0.00182320,0.00022852,0.00055832,-0.0
 0033779,0.00003164,0.00005811,0.00003845,-0.00015591,0.00000758,-0.000
 42813,-0.00004652,0.00002280,0.00015120,0.00015775,-0.00006913,0.00009
 054,-0.00010281,-0.00027780,0.00006050,-0.00001901,-0.00027372,0.00007
 224,-0.10093055,0.06728315,-0.00554901,0.00222343,-0.00011003,0.002972
 28,0.00367403,0.01875936,0.14516625,-0.08803418,-0.21142762,0.01813582
 ,-0.00983599,-0.02132898,-0.00371683,0.00049074,-0.00164700,0.00099469
 ,-0.00065256,-0.00050328,0.00013620,0.00009254,0.00092467,-0.00011966,
 0.00005636,-0.00057635,0.00248947,-0.00027795,0.00158604,-0.00169469,0
 .00045827,0.00010792,0.00000623,0.00000003,0.00007198,-0.00039709,-0.0
 0005953,-0.00094897,-0.00016763,0.00015961,0.00050049,0.00027442,-0.00
 003905,0.00024085,-0.00017387,0.00007527,-0.00024108,0.00000079,0.0000
 5629,-0.00000695,-0.15236650,0.09163384,0.21907230,-0.00400563,0.01077
 825,0.02410422,-0.40238994,0.15709466,0.22314763,-0.07805222,0.0350362
 3,0.01616887,0.00674370,-0.00020982,0.01457921,0.00055859,-0.00086249,
 -0.00447514,0.00007468,0.00027591,0.00003603,-0.00065502,-0.00058561,-
 0.00372768,0.00053775,0.00013674,0.00214034,-0.00284849,0.00010467,-0.
 00370627,0.00060613,-0.00013340,-0.00005903,-0.00001749,0.00000673,-0.
 00009305,0.00159295,0.00026014,0.00443553,0.00044183,-0.00052233,-0.00
 194581,-0.00125869,0.00024739,-0.00106418,-0.00017526,0.00004015,-0.00
 019069,-0.00399665,0.00000384,-0.00486848,-0.00254739,0.00146395,-0.00
 877475,0.47896406,0.01137052,0.00680636,-0.01612007,0.15637869,-0.1431
 5240,-0.11192117,0.03370112,0.00400796,-0.00264281,-0.00248141,-0.0024
 5467,-0.00494047,0.00029961,0.00055650,0.00024811,-0.00041349,0.000960
 30,-0.00024044,0.00036737,-0.00006711,0.00141350,-0.00039744,-0.000293
 29,-0.00065127,0.00080113,-0.00033145,0.00167407,-0.00019582,0.0003062
 1,-0.00003421,0.00003278,0.00005494,0.00004996,-0.00067662,-0.00030927
 ,-0.00165715,-0.00020879,0.00024293,0.00072746,0.00042272,0.00001078,0
 .00033106,0.00010842,0.00003690,0.00010039,0.00032412,-0.00087526,0.00
 201319,0.00218860,0.00634822,0.00120065,-0.20225279,0.12569522,0.02711
 793,-0.01714410,-0.02666323,0.21949124,-0.11067856,-0.25296608,0.00938
 649,-0.00034538,0.03040963,0.00300544,-0.00102059,-0.00233510,0.001434
 51,-0.00175415,-0.00584161,-0.00346925,0.00094703,-0.00029232,0.001118
 99,-0.00022866,0.00054479,-0.00057756,0.00026954,0.00007541,-0.0001624
 8,0.00047359,0.00173898,-0.00037660,0.00007344,-0.00002920,0.00003969,
 0.00000499,0.00015005,-0.00032939,-0.00004231,-0.00099729,-0.00035082,
 0.00018701,0.00037590,-0.00017252,0.00002879,-0.00006122,0.00015654,-0
 .00001730,0.00023596,-0.00323858,0.00146129,0.00068759,-0.00507692,-0.
 00005253,-0.00217831,-0.25688847,0.13284151,0.26415066,-0.08500017,0.0
 2314063,0.02701362,-0.01626674,0.00547207,0.00169114,0.00328277,-0.001
 23574,-0.00320392,0.00134064,-0.00056962,-0.00076870,-0.00051057,0.000
 15152,0.00005369,0.00036235,-0.00016665,-0.00023807,0.00008217,0.00002
 898,0.00035009,0.00013440,-0.00005020,-0.00011043,-0.00008425,0.000133
 17,0.00049447,0.00012888,-0.00005185,-0.00002765,0.00000159,0.00000221
 ,0.00003123,-0.00021307,-0.00000622,-0.00039175,0.00001986,0.00001782,
 0.00012033,0.00022707,-0.00005007,0.00012686,-0.00003548,0.00000440,-0
 .00005285,0.00000335,-0.00010816,-0.00050963,0.00059320,-0.00023204,0.
 00195095,0.00499850,0.00003289,0.00550948,0.12407629,0.02370375,-0.042
 71497,-0.01219224,0.01006308,-0.00479016,-0.00146762,-0.00078258,0.001
 57428,-0.00094007,0.00008622,0.00019084,0.00059827,0.00011749,-0.00017
 064,-0.00018363,-0.00009290,0.00006569,0.00012685,-0.00009075,-0.00005
 423,-0.00025239,-0.00004979,0.00008278,0.00007902,-0.00002391,-0.00001
 468,-0.00022737,-0.00004795,0.00001001,0.00000841,-0.00000357,-0.00001
 167,-0.00001473,0.00016650,0.00000725,0.00034481,-0.00000151,-0.000022
 17,-0.00012859,-0.00016781,0.00004119,-0.00010834,0.00001101,0.0000066
 8,0.00001168,0.00000542,0.00003612,0.00029657,-0.00066709,-0.00113757,
 -0.00071322,-0.00091800,0.00138564,-0.00421743,-0.04677483,0.04285651,
 0.02987283,-0.01315757,-0.04783389,0.02508534,-0.00938760,-0.00565634,
 -0.00090121,-0.00171850,-0.00882660,0.00257705,-0.00053508,0.00182419,
 -0.00011918,-0.00012536,-0.00093762,0.00013586,0.00000029,0.00024444,-
 0.00025931,-0.00004632,-0.00071742,-0.00010889,0.00007873,0.00026274,-
 0.00030488,0.00004329,-0.00028352,-0.00000826,0.00000193,-0.00001277,0
 .00000176,-0.00000477,-0.00003121,0.00048798,0.00004719,0.00107694,0.0
 0002208,-0.00009548,-0.00044502,-0.00047313,0.00009479,-0.00032755,-0.
 00001916,0.00000027,-0.00002362,0.00006858,0.00010091,0.00061170,-0.00
 026481,0.00003706,-0.00149148,0.00066458,-0.00257844,-0.01007158,-0.06
 047361,0.03086550,0.07392911,-0.19170195,-0.13838140,-0.02728664,-0.00
 535335,-0.00474989,-0.00284050,0.00083479,-0.00009025,-0.00062940,-0.0
 0021928,0.00025326,-0.00037270,-0.00000991,0.00000018,0.00011509,-0.00
 004167,-0.00008283,-0.00005844,0.00004650,0.00000044,0.00009083,-0.000
 02267,-0.00004520,-0.00003212,0.00006494,0.00003488,0.00002078,0.00000
 758,-0.00000818,0.00000684,-0.00000260,-0.00000081,-0.00000113,-0.0000
 4073,0.00003099,-0.00011877,-0.00000582,0.00000458,0.00004047,0.000048
 43,-0.00001960,0.00003036,-0.00000309,-0.00000501,-0.00000418,0.000006
 49,0.00007755,-0.00010884,-0.00008863,-0.00009708,0.00044657,0.0012525
 2,0.00144213,0.00142943,-0.01916199,-0.00418422,0.00444765,0.20747616,
 -0.13686084,-0.15856932,-0.02005741,-0.00073325,0.00020766,0.00127422,
 0.00015465,-0.00057597,0.00018932,-0.00004764,-0.00012283,0.00010579,-
 0.00002814,0.00000030,-0.00000792,0.00000970,0.00002392,0.00002459,-0.
 00003175,-0.00000087,-0.00004055,0.00000134,0.00000263,-0.00000821,0.0
 0006034,-0.00000258,-0.00003541,-0.00000291,0.00001554,-0.00000683,0.0
 0000102,-0.00000364,-0.00000229,0.00003078,0.00000191,0.00007966,0.000
 00054,-0.00000788,-0.00002989,-0.00002696,0.00000513,-0.00002293,-0.00
 000047,0.00000247,0.00000121,-0.00001359,-0.00001491,0.00000823,0.0002
 5264,-0.00000942,-0.00029590,0.00046308,0.00053205,-0.00049757,0.01594
 680,0.00593261,-0.00241933,0.14085740,0.16758356,-0.02791286,-0.022205
 01,-0.04397135,-0.02412458,-0.01997242,-0.00532020,0.00052666,-0.00031
 422,-0.00396718,-0.00045905,0.00140115,-0.00009873,-0.00009620,0.00002
 744,-0.00000645,0.00004052,-0.00009103,0.00005714,-0.00009281,0.000013
 15,-0.00013594,-0.00013608,-0.00008698,0.00002880,0.00010837,-0.000012
 77,-0.00036121,-0.00000302,0.00003277,0.00001346,-0.00000687,-0.000008
 26,-0.00003398,0.00010199,0.00004454,0.00022845,0.00001015,-0.00002648
 ,-0.00009641,-0.00007726,0.00000900,-0.00006668,-0.00001042,-0.0000075
 7,-0.00000930,0.00000805,0.00002163,-0.00001780,0.00001643,-0.00078006
 ,-0.00027559,0.00112828,0.00291904,0.00099828,0.01674668,0.00400274,-0
 .00265570,0.02487185,0.02585447,0.05281394,-0.05108448,0.05468751,-0.0
 2989683,-0.00208311,0.00723575,-0.00628405,0.00025356,-0.00090923,-0.0
 0085001,-0.00046015,-0.00032835,-0.00022162,0.00000726,0.00003179,0.00
 009048,0.00001955,0.00006825,-0.00008601,0.00004419,-0.00000072,0.0000
 8162,-0.00000172,0.00004944,-0.00003675,0.00000634,-0.00003914,0.00000
 902,0.00001421,0.00000808,0.00000712,-0.00000350,0.00000047,-0.0000034
 7,-0.00006154,-0.00003770,-0.00010262,-0.00000165,0.00001164,0.0000376
 4,0.00005052,-0.00000363,0.00002736,0.00000041,0.00000491,-0.00000735,
 -0.00004271,-0.00009420,-0.00006119,-0.00002149,0.00041651,0.00038636,
 0.00017607,-0.00084375,0.00195286,-0.01397881,0.01965144,-0.00043126,0
 .00691431,-0.02003276,0.00936015,0.06025275,0.05330439,-0.25375549,0.1
 0294169,-0.00131215,0.00535265,-0.00295247,-0.00068527,-0.00040308,-0.
 00096974,-0.00022796,-0.00027466,0.00024340,-0.00001770,-0.00002473,-0
 .00005722,0.00002901,-0.00000620,0.00003687,-0.00003937,-0.00000647,-0
 .00006747,-0.00002035,0.00003548,0.00002671,-0.00003556,0.00000631,-0.
 00011493,-0.00000471,0.00000054,0.00000638,-0.00000251,-0.00000246,-0.
 00000868,0.00004169,0.00001244,0.00008555,0.00000465,-0.00001126,-0.00
 003353,-0.00003701,0.00000450,-0.00002242,-0.00000044,0.00000133,-0.00
 000215,0.00002914,0.00003244,0.00004010,-0.00000016,0.00017601,-0.0002
 1269,-0.00042729,0.00053944,-0.00028861,0.00431488,-0.00327353,-0.0012
 0151,0.00496305,-0.01500036,0.00917888,-0.05987631,0.26659710,-0.02857
 627,0.10484740,-0.08940354,-0.00807361,0.02610690,-0.01373738,0.000378
 97,-0.00127328,-0.00356249,-0.00114855,-0.00070723,0.00029549,-0.00009
 507,0.00004169,0.00000128,0.00008623,0.00006069,0.00002598,-0.00009577
 ,0.00000089,-0.00012789,-0.00005097,0.00014552,-0.00002498,0.00006847,
 -0.00018769,-0.00031176,-0.00002160,-0.00002011,0.00002185,-0.00000355
 ,-0.00000074,-0.00003427,0.00008009,-0.00001565,0.00023855,0.00001194,
 -0.00001810,-0.00009714,-0.00007290,0.00001598,-0.00006809,-0.00000522
 ,0.00000802,-0.00001167,-0.00001427,-0.00002870,-0.00001604,0.00047372
 ,0.00038694,-0.00052800,-0.00061113,-0.00273290,0.00206869,0.01168808,
 -0.01588822,0.00136521,-0.00004715,-0.00411326,0.00287643,0.02602855,-
 0.10662816,0.10102978\\-0.00000668,-0.00000227,-0.00000293,0.00002072,
 -0.00001019,0.00001549,-0.00001596,-0.00000631,-0.00000429,-0.00000113
 ,0.00000565,-0.00000047,0.00000174,0.00000177,0.00000689,-0.00000320,0
 .00000077,-0.00000236,0.00000217,-0.00000343,-0.00001080,0.00000033,0.
 00000009,0.00000362,-0.00000246,-0.00000046,-0.00000354,-0.00000038,-0
 .00000117,-0.00000018,-0.00000033,0.00000036,0.00000069,0.00000284,0.0
 0000050,0.00000095,0.00000530,-0.00000184,0.00000373,-0.00000354,0.000
 00229,0.00000452,0.00000094,-0.00000080,-0.00000048,0.00000065,-0.0000
 0068,-0.00000032,0.00000387,0.00000499,-0.00000134,-0.00000192,0.00000
 181,-0.00001653,-0.00000277,0.00000459,0.00000344,0.00000105,0.0000065
 1,0.00000348,-0.00000123,-0.00000218,0.00000044\\\@


 A HARD FALL SHOULD MEAN A HIGH BOUNCE 
 IF ONE IS MADE OF THE RIGHT MATERIAL.

                -- THE CHEMIST ANALYST, MARCH 1950
 Job cpu time:       0 days  0 hours 36 minutes 25.4 seconds.
 Elapsed time:       0 days  0 hours  4 minutes 33.3 seconds.
 File lengths (MBytes):  RWF=    218 Int=      0 D2E=      0 Chk=      9 Scr=      1
 Normal termination of Gaussian 16 at Tue Nov  9 14:30:07 2021.
